
[ moleculetype ]
; name          nrexcl
MFI       3

[ atoms ]
;  Index   type   residue  resname   atom        cgnr     charge       mass
     1     os         1      MOL     O1            1    0.00000000   15.999405
     2     os         1      MOL     O2            2    0.00000000   15.999405
     3     os         1      MOL     O3            3    0.00000000   15.999405
     4     o          1      MOL     O4            4    0.00000000   15.999405
     5     os         1      MOL     O5            5    0.00000000   15.999405
     6     os         1      MOL     O6            6    0.00000000   15.999405
     7     os         1      MOL     O7            7    0.00000000   15.999405
     8     os         1      MOL     O8            8    0.00000000   15.999405
     9     os         1      MOL     O9            9    0.00000000   15.999405
    10     o          1      MOL     O10          10    0.00000000   15.999405
    11     os         1      MOL     O11          11    0.00000000   15.999405
    12     os         1      MOL     O12          12    0.00000000   15.999405
    13     os         1      MOL     O13          13    0.00000000   15.999405
    14     os         1      MOL     O14          14    0.00000000   15.999405
    15     os         1      MOL     O15          15    0.00000000   15.999405
    16     os         1      MOL     O16          16    0.00000000   15.999405
    17     os         1      MOL     O17          17    0.00000000   15.999405
    18     os         1      MOL     O18          18    0.00000000   15.999405
    19     os         1      MOL     O19          19    0.00000000   15.999405
    20     os         1      MOL     O20          20    0.00000000   15.999405
    21     os         1      MOL     O21          21    0.00000000   15.999405
    22     os         1      MOL     O22          22    0.00000000   15.999405
    23     os         1      MOL     O23          23    0.00000000   15.999405
    24     os         1      MOL     O24          24    0.00000000   15.999405
    25     os         1      MOL     O25          25    0.00000000   15.999405
    26     os         1      MOL     O26          26    0.00000000   15.999405
    27     UF_Si      1      MOL     Si27         27    0.00000000   28.085499
    28     UF_Si      1      MOL     Si28         28    0.00000000   28.085499
    29     UF_Si      1      MOL     Si29         29    0.00000000   28.085499
    30     UF_Si      1      MOL     Si30         30    0.00000000   28.085499
    31     UF_Si      1      MOL     Si31         31    0.00000000   28.085499
    32     UF_Si      1      MOL     Si32         32    0.00000000   28.085499
    33     UF_Si      1      MOL     Si33         33    0.00000000   28.085499
    34     UF_Si      1      MOL     Si34         34    0.00000000   28.085499
    35     UF_Si      1      MOL     Si35         35    0.00000000   28.085499
    36     UF_Si      1      MOL     Si36         36    0.00000000   28.085499
    37     UF_Si      1      MOL     Si37         37    0.00000000   28.085499
    38     UF_Si      1      MOL     Si38         38    0.00000000   28.085499
    39     os         1      MOL     O39          39    0.00000000   15.999405
    40     os         1      MOL     O40          40    0.00000000   15.999405
    41     os         1      MOL     O41          41    0.00000000   15.999405
    42     os         1      MOL     O42          42    0.00000000   15.999405
    43     os         1      MOL     O43          43    0.00000000   15.999405
    44     o          1      MOL     O44          44    0.00000000   15.999405
    45     os         1      MOL     O45          45    0.00000000   15.999405
    46     os         1      MOL     O46          46    0.00000000   15.999405
    47     os         1      MOL     O47          47    0.00000000   15.999405
    48     os         1      MOL     O48          48    0.00000000   15.999405
    49     os         1      MOL     O49          49    0.00000000   15.999405
    50     os         1      MOL     O50          50    0.00000000   15.999405
    51     os         1      MOL     O51          51    0.00000000   15.999405
    52     o          1      MOL     O52          52    0.00000000   15.999405
    53     os         1      MOL     O53          53    0.00000000   15.999405
    54     o          1      MOL     O54          54    0.00000000   15.999405
    55     os         1      MOL     O55          55    0.00000000   15.999405
    56     os         1      MOL     O56          56    0.00000000   15.999405
    57     os         1      MOL     O57          57    0.00000000   15.999405
    58     os         1      MOL     O58          58    0.00000000   15.999405
    59     os         1      MOL     O59          59    0.00000000   15.999405
    60     os         1      MOL     O60          60    0.00000000   15.999405
    61     os         1      MOL     O61          61    0.00000000   15.999405
    62     os         1      MOL     O62          62    0.00000000   15.999405
    63     os         1      MOL     O63          63    0.00000000   15.999405
    64     os         1      MOL     O64          64    0.00000000   15.999405
    65     UF_Si      1      MOL     Si65         65    0.00000000   28.085499
    66     UF_Si      1      MOL     Si66         66    0.00000000   28.085499
    67     UF_Si      1      MOL     Si67         67    0.00000000   28.085499
    68     UF_Si      1      MOL     Si68         68    0.00000000   28.085499
    69     UF_Si      1      MOL     Si69         69    0.00000000   28.085499
    70     UF_Si      1      MOL     Si70         70    0.00000000   28.085499
    71     UF_Si      1      MOL     Si71         71    0.00000000   28.085499
    72     UF_Si      1      MOL     Si72         72    0.00000000   28.085499
    73     UF_Si      1      MOL     Si73         73    0.00000000   28.085499
    74     UF_Si      1      MOL     Si74         74    0.00000000   28.085499
    75     UF_Si      1      MOL     Si75         75    0.00000000   28.085499
    76     UF_Si      1      MOL     Si76         76    0.00000000   28.085499
    77     o          1      MOL     O77          77    0.00000000   15.999405
    78     os         1      MOL     O78          78    0.00000000   15.999405
    79     os         1      MOL     O79          79    0.00000000   15.999405
    80     os         1      MOL     O80          80    0.00000000   15.999405
    81     os         1      MOL     O81          81    0.00000000   15.999405
    82     os         1      MOL     O82          82    0.00000000   15.999405
    83     os         1      MOL     O83          83    0.00000000   15.999405
    84     os         1      MOL     O84          84    0.00000000   15.999405
    85     os         1      MOL     O85          85    0.00000000   15.999405
    86     os         1      MOL     O86          86    0.00000000   15.999405
    87     os         1      MOL     O87          87    0.00000000   15.999405
    88     os         1      MOL     O88          88    0.00000000   15.999405
    89     os         1      MOL     O89          89    0.00000000   15.999405
    90     os         1      MOL     O90          90    0.00000000   15.999405
    91     os         1      MOL     O91          91    0.00000000   15.999405
    92     os         1      MOL     O92          92    0.00000000   15.999405
    93     os         1      MOL     O93          93    0.00000000   15.999405
    94     os         1      MOL     O94          94    0.00000000   15.999405
    95     os         1      MOL     O95          95    0.00000000   15.999405
    96     os         1      MOL     O96          96    0.00000000   15.999405
    97     os         1      MOL     O97          97    0.00000000   15.999405
    98     os         1      MOL     O98          98    0.00000000   15.999405
    99     os         1      MOL     O99          99    0.00000000   15.999405
   100     os         1      MOL     O100        100    0.00000000   15.999405
   101     os         1      MOL     O101        101    0.00000000   15.999405
   102     os         1      MOL     O102        102    0.00000000   15.999405
   103     UF_Si      1      MOL     Si103       103    0.00000000   28.085499
   104     UF_Si      1      MOL     Si104       104    0.00000000   28.085499
   105     UF_Si      1      MOL     Si105       105    0.00000000   28.085499
   106     UF_Si      1      MOL     Si106       106    0.00000000   28.085499
   107     UF_Si      1      MOL     Si107       107    0.00000000   28.085499
   108     UF_Si      1      MOL     Si108       108    0.00000000   28.085499
   109     UF_Si      1      MOL     Si109       109    0.00000000   28.085499
   110     UF_Si      1      MOL     Si110       110    0.00000000   28.085499
   111     UF_Si      1      MOL     Si111       111    0.00000000   28.085499
   112     UF_Si      1      MOL     Si112       112    0.00000000   28.085499
   113     UF_Si      1      MOL     Si113       113    0.00000000   28.085499
   114     UF_Si      1      MOL     Si114       114    0.00000000   28.085499
   115     os         1      MOL     O115        115    0.00000000   15.999405
   116     os         1      MOL     O116        116    0.00000000   15.999405
   117     os         1      MOL     O117        117    0.00000000   15.999405
   118     os         1      MOL     O118        118    0.00000000   15.999405
   119     o          1      MOL     O119        119    0.00000000   15.999405
   120     os         1      MOL     O120        120    0.00000000   15.999405
   121     os         1      MOL     O121        121    0.00000000   15.999405
   122     os         1      MOL     O122        122    0.00000000   15.999405
   123     os         1      MOL     O123        123    0.00000000   15.999405
   124     os         1      MOL     O124        124    0.00000000   15.999405
   125     os         1      MOL     O125        125    0.00000000   15.999405
   126     o          1      MOL     O126        126    0.00000000   15.999405
   127     os         1      MOL     O127        127    0.00000000   15.999405
   128     os         1      MOL     O128        128    0.00000000   15.999405
   129     os         1      MOL     O129        129    0.00000000   15.999405
   130     os         1      MOL     O130        130    0.00000000   15.999405
   131     os         1      MOL     O131        131    0.00000000   15.999405
   132     os         1      MOL     O132        132    0.00000000   15.999405
   133     o          1      MOL     O133        133    0.00000000   15.999405
   134     os         1      MOL     O134        134    0.00000000   15.999405
   135     os         1      MOL     O135        135    0.00000000   15.999405
   136     os         1      MOL     O136        136    0.00000000   15.999405
   137     os         1      MOL     O137        137    0.00000000   15.999405
   138     o          1      MOL     O138        138    0.00000000   15.999405
   139     os         1      MOL     O139        139    0.00000000   15.999405
   140     os         1      MOL     O140        140    0.00000000   15.999405
   141     UF_Si      1      MOL     Si141       141    0.00000000   28.085499
   142     UF_Si      1      MOL     Si142       142    0.00000000   28.085499
   143     UF_Si      1      MOL     Si143       143    0.00000000   28.085499
   144     UF_Si      1      MOL     Si144       144    0.00000000   28.085499
   145     UF_Si      1      MOL     Si145       145    0.00000000   28.085499
   146     UF_Si      1      MOL     Si146       146    0.00000000   28.085499
   147     UF_Si      1      MOL     Si147       147    0.00000000   28.085499
   148     UF_Si      1      MOL     Si148       148    0.00000000   28.085499
   149     UF_Si      1      MOL     Si149       149    0.00000000   28.085499
   150     UF_Si      1      MOL     Si150       150    0.00000000   28.085499
   151     UF_Si      1      MOL     Si151       151    0.00000000   28.085499
   152     UF_Si      1      MOL     Si152       152    0.00000000   28.085499
   153     os         1      MOL     O153        153    0.00000000   15.999405
   154     os         1      MOL     O154        154    0.00000000   15.999405
   155     os         1      MOL     O155        155    0.00000000   15.999405
   156     os         1      MOL     O156        156    0.00000000   15.999405
   157     o          1      MOL     O157        157    0.00000000   15.999405
   158     o          1      MOL     O158        158    0.00000000   15.999405
   159     os         1      MOL     O159        159    0.00000000   15.999405
   160     os         1      MOL     O160        160    0.00000000   15.999405
   161     os         1      MOL     O161        161    0.00000000   15.999405
   162     os         1      MOL     O162        162    0.00000000   15.999405
   163     os         1      MOL     O163        163    0.00000000   15.999405
   164     o          1      MOL     O164        164    0.00000000   15.999405
   165     os         1      MOL     O165        165    0.00000000   15.999405
   166     o          1      MOL     O166        166    0.00000000   15.999405
   167     os         1      MOL     O167        167    0.00000000   15.999405
   168     os         1      MOL     O168        168    0.00000000   15.999405
   169     os         1      MOL     O169        169    0.00000000   15.999405
   170     o          1      MOL     O170        170    0.00000000   15.999405
   171     os         1      MOL     O171        171    0.00000000   15.999405
   172     os         1      MOL     O172        172    0.00000000   15.999405
   173     o          1      MOL     O173        173    0.00000000   15.999405
   174     os         1      MOL     O174        174    0.00000000   15.999405
   175     UF_Si      1      MOL     Si175       175    0.00000000   28.085499
   176     UF_Si      1      MOL     Si176       176    0.00000000   28.085499
   177     UF_Si      1      MOL     Si177       177    0.00000000   28.085499
   178     UF_Si      1      MOL     Si178       178    0.00000000   28.085499
   179     UF_Si      1      MOL     Si179       179    0.00000000   28.085499
   180     UF_Si      1      MOL     Si180       180    0.00000000   28.085499
   181     UF_Si      1      MOL     Si181       181    0.00000000   28.085499
   182     UF_Si      1      MOL     Si182       182    0.00000000   28.085499
   183     UF_Si      1      MOL     Si183       183    0.00000000   28.085499
   184     UF_Si      1      MOL     Si184       184    0.00000000   28.085499
   185     UF_Si      1      MOL     Si185       185    0.00000000   28.085499
   186     UF_Si      1      MOL     Si186       186    0.00000000   28.085499
   187     o          1      MOL     O187        187    0.00000000   15.999405
   188     os         1      MOL     O188        188    0.00000000   15.999405
   189     os         1      MOL     O189        189    0.00000000   15.999405
   190     o          1      MOL     O190        190    0.00000000   15.999405
   191     os         1      MOL     O191        191    0.00000000   15.999405
   192     os         1      MOL     O192        192    0.00000000   15.999405
   193     os         1      MOL     O193        193    0.00000000   15.999405
   194     os         1      MOL     O194        194    0.00000000   15.999405
   195     os         1      MOL     O195        195    0.00000000   15.999405
   196     o          1      MOL     O196        196    0.00000000   15.999405
   197     os         1      MOL     O197        197    0.00000000   15.999405
   198     os         1      MOL     O198        198    0.00000000   15.999405
   199     os         1      MOL     O199        199    0.00000000   15.999405
   200     os         1      MOL     O200        200    0.00000000   15.999405
   201     os         1      MOL     O201        201    0.00000000   15.999405
   202     os         1      MOL     O202        202    0.00000000   15.999405
   203     os         1      MOL     O203        203    0.00000000   15.999405
   204     os         1      MOL     O204        204    0.00000000   15.999405
   205     os         1      MOL     O205        205    0.00000000   15.999405
   206     os         1      MOL     O206        206    0.00000000   15.999405
   207     os         1      MOL     O207        207    0.00000000   15.999405
   208     os         1      MOL     O208        208    0.00000000   15.999405
   209     UF_Si      1      MOL     Si209       209    0.00000000   28.085499
   210     UF_Si      1      MOL     Si210       210    0.00000000   28.085499
   211     UF_Si      1      MOL     Si211       211    0.00000000   28.085499
   212     UF_Si      1      MOL     Si212       212    0.00000000   28.085499
   213     UF_Si      1      MOL     Si213       213    0.00000000   28.085499
   214     UF_Si      1      MOL     Si214       214    0.00000000   28.085499
   215     UF_Si      1      MOL     Si215       215    0.00000000   28.085499
   216     UF_Si      1      MOL     Si216       216    0.00000000   28.085499
   217     UF_Si      1      MOL     Si217       217    0.00000000   28.085499
   218     UF_Si      1      MOL     Si218       218    0.00000000   28.085499
   219     UF_Si      1      MOL     Si219       219    0.00000000   28.085499
   220     UF_Si      1      MOL     Si220       220    0.00000000   28.085499
   221     os         1      MOL     O221        221    0.00000000   15.999405
   222     os         1      MOL     O222        222    0.00000000   15.999405
   223     os         1      MOL     O223        223    0.00000000   15.999405
   224     os         1      MOL     O224        224    0.00000000   15.999405
   225     os         1      MOL     O225        225    0.00000000   15.999405
   226     os         1      MOL     O226        226    0.00000000   15.999405
   227     os         1      MOL     O227        227    0.00000000   15.999405
   228     os         1      MOL     O228        228    0.00000000   15.999405
   229     os         1      MOL     O229        229    0.00000000   15.999405
   230     os         1      MOL     O230        230    0.00000000   15.999405
   231     os         1      MOL     O231        231    0.00000000   15.999405
   232     os         1      MOL     O232        232    0.00000000   15.999405
   233     os         1      MOL     O233        233    0.00000000   15.999405
   234     os         1      MOL     O234        234    0.00000000   15.999405
   235     os         1      MOL     O235        235    0.00000000   15.999405
   236     o          1      MOL     O236        236    0.00000000   15.999405
   237     os         1      MOL     O237        237    0.00000000   15.999405
   238     os         1      MOL     O238        238    0.00000000   15.999405
   239     os         1      MOL     O239        239    0.00000000   15.999405
   240     os         1      MOL     O240        240    0.00000000   15.999405
   241     os         1      MOL     O241        241    0.00000000   15.999405
   242     os         1      MOL     O242        242    0.00000000   15.999405
   243     UF_Si      1      MOL     Si243       243    0.00000000   28.085499
   244     UF_Si      1      MOL     Si244       244    0.00000000   28.085499
   245     UF_Si      1      MOL     Si245       245    0.00000000   28.085499
   246     UF_Si      1      MOL     Si246       246    0.00000000   28.085499
   247     UF_Si      1      MOL     Si247       247    0.00000000   28.085499
   248     UF_Si      1      MOL     Si248       248    0.00000000   28.085499
   249     UF_Si      1      MOL     Si249       249    0.00000000   28.085499
   250     UF_Si      1      MOL     Si250       250    0.00000000   28.085499
   251     UF_Si      1      MOL     Si251       251    0.00000000   28.085499
   252     UF_Si      1      MOL     Si252       252    0.00000000   28.085499
   253     UF_Si      1      MOL     Si253       253    0.00000000   28.085499
   254     UF_Si      1      MOL     Si254       254    0.00000000   28.085499
   255     os         1      MOL     O255        255    0.00000000   15.999405
   256     os         1      MOL     O256        256    0.00000000   15.999405
   257     os         1      MOL     O257        257    0.00000000   15.999405
   258     os         1      MOL     O258        258    0.00000000   15.999405
   259     os         1      MOL     O259        259    0.00000000   15.999405
   260     os         1      MOL     O260        260    0.00000000   15.999405
   261     os         1      MOL     O261        261    0.00000000   15.999405
   262     os         1      MOL     O262        262    0.00000000   15.999405
   263     os         1      MOL     O263        263    0.00000000   15.999405
   264     os         1      MOL     O264        264    0.00000000   15.999405
   265     os         1      MOL     O265        265    0.00000000   15.999405
   266     os         1      MOL     O266        266    0.00000000   15.999405
   267     os         1      MOL     O267        267    0.00000000   15.999405
   268     os         1      MOL     O268        268    0.00000000   15.999405
   269     os         1      MOL     O269        269    0.00000000   15.999405
   270     os         1      MOL     O270        270    0.00000000   15.999405
   271     os         1      MOL     O271        271    0.00000000   15.999405
   272     os         1      MOL     O272        272    0.00000000   15.999405
   273     os         1      MOL     O273        273    0.00000000   15.999405
   274     os         1      MOL     O274        274    0.00000000   15.999405
   275     os         1      MOL     O275        275    0.00000000   15.999405
   276     os         1      MOL     O276        276    0.00000000   15.999405
   277     UF_Si      1      MOL     Si277       277    0.00000000   28.085499
   278     UF_Si      1      MOL     Si278       278    0.00000000   28.085499
   279     UF_Si      1      MOL     Si279       279    0.00000000   28.085499
   280     UF_Si      1      MOL     Si280       280    0.00000000   28.085499
   281     UF_Si      1      MOL     Si281       281    0.00000000   28.085499
   282     UF_Si      1      MOL     Si282       282    0.00000000   28.085499
   283     UF_Si      1      MOL     Si283       283    0.00000000   28.085499
   284     UF_Si      1      MOL     Si284       284    0.00000000   28.085499
   285     UF_Si      1      MOL     Si285       285    0.00000000   28.085499
   286     UF_Si      1      MOL     Si286       286    0.00000000   28.085499
   287     UF_Si      1      MOL     Si287       287    0.00000000   28.085499
   288     UF_Si      1      MOL     Si288       288    0.00000000   28.085499
   289     os         1      MOL     O289        289    0.00000000   15.999405
   290     os         1      MOL     O290        290    0.00000000   15.999405
   291     os         1      MOL     O291        291    0.00000000   15.999405
   292     o          1      MOL     O292        292    0.00000000   15.999405
   293     os         1      MOL     O293        293    0.00000000   15.999405
   294     os         1      MOL     O294        294    0.00000000   15.999405
   295     os         1      MOL     O295        295    0.00000000   15.999405
   296     os         1      MOL     O296        296    0.00000000   15.999405
   297     os         1      MOL     O297        297    0.00000000   15.999405
   298     o          1      MOL     O298        298    0.00000000   15.999405
   299     os         1      MOL     O299        299    0.00000000   15.999405
   300     os         1      MOL     O300        300    0.00000000   15.999405
   301     os         1      MOL     O301        301    0.00000000   15.999405
   302     os         1      MOL     O302        302    0.00000000   15.999405
   303     os         1      MOL     O303        303    0.00000000   15.999405
   304     os         1      MOL     O304        304    0.00000000   15.999405
   305     os         1      MOL     O305        305    0.00000000   15.999405
   306     os         1      MOL     O306        306    0.00000000   15.999405
   307     os         1      MOL     O307        307    0.00000000   15.999405
   308     os         1      MOL     O308        308    0.00000000   15.999405
   309     os         1      MOL     O309        309    0.00000000   15.999405
   310     os         1      MOL     O310        310    0.00000000   15.999405
   311     os         1      MOL     O311        311    0.00000000   15.999405
   312     os         1      MOL     O312        312    0.00000000   15.999405
   313     os         1      MOL     O313        313    0.00000000   15.999405
   314     os         1      MOL     O314        314    0.00000000   15.999405
   315     UF_Si      1      MOL     Si315       315    0.00000000   28.085499
   316     UF_Si      1      MOL     Si316       316    0.00000000   28.085499
   317     UF_Si      1      MOL     Si317       317    0.00000000   28.085499
   318     UF_Si      1      MOL     Si318       318    0.00000000   28.085499
   319     UF_Si      1      MOL     Si319       319    0.00000000   28.085499
   320     UF_Si      1      MOL     Si320       320    0.00000000   28.085499
   321     UF_Si      1      MOL     Si321       321    0.00000000   28.085499
   322     UF_Si      1      MOL     Si322       322    0.00000000   28.085499
   323     UF_Si      1      MOL     Si323       323    0.00000000   28.085499
   324     UF_Si      1      MOL     Si324       324    0.00000000   28.085499
   325     UF_Si      1      MOL     Si325       325    0.00000000   28.085499
   326     UF_Si      1      MOL     Si326       326    0.00000000   28.085499
   327     os         1      MOL     O327        327    0.00000000   15.999405
   328     os         1      MOL     O328        328    0.00000000   15.999405
   329     os         1      MOL     O329        329    0.00000000   15.999405
   330     os         1      MOL     O330        330    0.00000000   15.999405
   331     os         1      MOL     O331        331    0.00000000   15.999405
   332     o          1      MOL     O332        332    0.00000000   15.999405
   333     os         1      MOL     O333        333    0.00000000   15.999405
   334     os         1      MOL     O334        334    0.00000000   15.999405
   335     os         1      MOL     O335        335    0.00000000   15.999405
   336     os         1      MOL     O336        336    0.00000000   15.999405
   337     os         1      MOL     O337        337    0.00000000   15.999405
   338     os         1      MOL     O338        338    0.00000000   15.999405
   339     os         1      MOL     O339        339    0.00000000   15.999405
   340     o          1      MOL     O340        340    0.00000000   15.999405
   341     os         1      MOL     O341        341    0.00000000   15.999405
   342     o          1      MOL     O342        342    0.00000000   15.999405
   343     os         1      MOL     O343        343    0.00000000   15.999405
   344     os         1      MOL     O344        344    0.00000000   15.999405
   345     os         1      MOL     O345        345    0.00000000   15.999405
   346     os         1      MOL     O346        346    0.00000000   15.999405
   347     os         1      MOL     O347        347    0.00000000   15.999405
   348     os         1      MOL     O348        348    0.00000000   15.999405
   349     os         1      MOL     O349        349    0.00000000   15.999405
   350     os         1      MOL     O350        350    0.00000000   15.999405
   351     os         1      MOL     O351        351    0.00000000   15.999405
   352     os         1      MOL     O352        352    0.00000000   15.999405
   353     UF_Si      1      MOL     Si353       353    0.00000000   28.085499
   354     UF_Si      1      MOL     Si354       354    0.00000000   28.085499
   355     UF_Si      1      MOL     Si355       355    0.00000000   28.085499
   356     UF_Si      1      MOL     Si356       356    0.00000000   28.085499
   357     UF_Si      1      MOL     Si357       357    0.00000000   28.085499
   358     UF_Si      1      MOL     Si358       358    0.00000000   28.085499
   359     UF_Si      1      MOL     Si359       359    0.00000000   28.085499
   360     UF_Si      1      MOL     Si360       360    0.00000000   28.085499
   361     UF_Si      1      MOL     Si361       361    0.00000000   28.085499
   362     UF_Si      1      MOL     Si362       362    0.00000000   28.085499
   363     UF_Si      1      MOL     Si363       363    0.00000000   28.085499
   364     UF_Si      1      MOL     Si364       364    0.00000000   28.085499
   365     o          1      MOL     O365        365    0.00000000   15.999405
   366     os         1      MOL     O366        366    0.00000000   15.999405
   367     os         1      MOL     O367        367    0.00000000   15.999405
   368     os         1      MOL     O368        368    0.00000000   15.999405
   369     os         1      MOL     O369        369    0.00000000   15.999405
   370     os         1      MOL     O370        370    0.00000000   15.999405
   371     os         1      MOL     O371        371    0.00000000   15.999405
   372     os         1      MOL     O372        372    0.00000000   15.999405
   373     os         1      MOL     O373        373    0.00000000   15.999405
   374     os         1      MOL     O374        374    0.00000000   15.999405
   375     os         1      MOL     O375        375    0.00000000   15.999405
   376     os         1      MOL     O376        376    0.00000000   15.999405
   377     os         1      MOL     O377        377    0.00000000   15.999405
   378     os         1      MOL     O378        378    0.00000000   15.999405
   379     os         1      MOL     O379        379    0.00000000   15.999405
   380     os         1      MOL     O380        380    0.00000000   15.999405
   381     os         1      MOL     O381        381    0.00000000   15.999405
   382     os         1      MOL     O382        382    0.00000000   15.999405
   383     os         1      MOL     O383        383    0.00000000   15.999405
   384     os         1      MOL     O384        384    0.00000000   15.999405
   385     os         1      MOL     O385        385    0.00000000   15.999405
   386     os         1      MOL     O386        386    0.00000000   15.999405
   387     os         1      MOL     O387        387    0.00000000   15.999405
   388     os         1      MOL     O388        388    0.00000000   15.999405
   389     os         1      MOL     O389        389    0.00000000   15.999405
   390     os         1      MOL     O390        390    0.00000000   15.999405
   391     UF_Si      1      MOL     Si391       391    0.00000000   28.085499
   392     UF_Si      1      MOL     Si392       392    0.00000000   28.085499
   393     UF_Si      1      MOL     Si393       393    0.00000000   28.085499
   394     UF_Si      1      MOL     Si394       394    0.00000000   28.085499
   395     UF_Si      1      MOL     Si395       395    0.00000000   28.085499
   396     UF_Si      1      MOL     Si396       396    0.00000000   28.085499
   397     UF_Si      1      MOL     Si397       397    0.00000000   28.085499
   398     UF_Si      1      MOL     Si398       398    0.00000000   28.085499
   399     UF_Si      1      MOL     Si399       399    0.00000000   28.085499
   400     UF_Si      1      MOL     Si400       400    0.00000000   28.085499
   401     UF_Si      1      MOL     Si401       401    0.00000000   28.085499
   402     UF_Si      1      MOL     Si402       402    0.00000000   28.085499
   403     os         1      MOL     O403        403    0.00000000   15.999405
   404     os         1      MOL     O404        404    0.00000000   15.999405
   405     os         1      MOL     O405        405    0.00000000   15.999405
   406     os         1      MOL     O406        406    0.00000000   15.999405
   407     os         1      MOL     O407        407    0.00000000   15.999405
   408     os         1      MOL     O408        408    0.00000000   15.999405
   409     os         1      MOL     O409        409    0.00000000   15.999405
   410     os         1      MOL     O410        410    0.00000000   15.999405
   411     os         1      MOL     O411        411    0.00000000   15.999405
   412     os         1      MOL     O412        412    0.00000000   15.999405
   413     os         1      MOL     O413        413    0.00000000   15.999405
   414     os         1      MOL     O414        414    0.00000000   15.999405
   415     os         1      MOL     O415        415    0.00000000   15.999405
   416     os         1      MOL     O416        416    0.00000000   15.999405
   417     os         1      MOL     O417        417    0.00000000   15.999405
   418     os         1      MOL     O418        418    0.00000000   15.999405
   419     os         1      MOL     O419        419    0.00000000   15.999405
   420     os         1      MOL     O420        420    0.00000000   15.999405
   421     os         1      MOL     O421        421    0.00000000   15.999405
   422     os         1      MOL     O422        422    0.00000000   15.999405
   423     os         1      MOL     O423        423    0.00000000   15.999405
   424     os         1      MOL     O424        424    0.00000000   15.999405
   425     os         1      MOL     O425        425    0.00000000   15.999405
   426     os         1      MOL     O426        426    0.00000000   15.999405
   427     os         1      MOL     O427        427    0.00000000   15.999405
   428     os         1      MOL     O428        428    0.00000000   15.999405
   429     UF_Si      1      MOL     Si429       429    0.00000000   28.085499
   430     UF_Si      1      MOL     Si430       430    0.00000000   28.085499
   431     UF_Si      1      MOL     Si431       431    0.00000000   28.085499
   432     UF_Si      1      MOL     Si432       432    0.00000000   28.085499
   433     UF_Si      1      MOL     Si433       433    0.00000000   28.085499
   434     UF_Si      1      MOL     Si434       434    0.00000000   28.085499
   435     UF_Si      1      MOL     Si435       435    0.00000000   28.085499
   436     UF_Si      1      MOL     Si436       436    0.00000000   28.085499
   437     UF_Si      1      MOL     Si437       437    0.00000000   28.085499
   438     UF_Si      1      MOL     Si438       438    0.00000000   28.085499
   439     UF_Si      1      MOL     Si439       439    0.00000000   28.085499
   440     UF_Si      1      MOL     Si440       440    0.00000000   28.085499
   441     os         1      MOL     O441        441    0.00000000   15.999405
   442     os         1      MOL     O442        442    0.00000000   15.999405
   443     os         1      MOL     O443        443    0.00000000   15.999405
   444     os         1      MOL     O444        444    0.00000000   15.999405
   445     os         1      MOL     O445        445    0.00000000   15.999405
   446     o          1      MOL     O446        446    0.00000000   15.999405
   447     os         1      MOL     O447        447    0.00000000   15.999405
   448     os         1      MOL     O448        448    0.00000000   15.999405
   449     os         1      MOL     O449        449    0.00000000   15.999405
   450     os         1      MOL     O450        450    0.00000000   15.999405
   451     os         1      MOL     O451        451    0.00000000   15.999405
   452     os         1      MOL     O452        452    0.00000000   15.999405
   453     os         1      MOL     O453        453    0.00000000   15.999405
   454     o          1      MOL     O454        454    0.00000000   15.999405
   455     os         1      MOL     O455        455    0.00000000   15.999405
   456     os         1      MOL     O456        456    0.00000000   15.999405
   457     os         1      MOL     O457        457    0.00000000   15.999405
   458     os         1      MOL     O458        458    0.00000000   15.999405
   459     os         1      MOL     O459        459    0.00000000   15.999405
   460     os         1      MOL     O460        460    0.00000000   15.999405
   461     os         1      MOL     O461        461    0.00000000   15.999405
   462     os         1      MOL     O462        462    0.00000000   15.999405
   463     UF_Si      1      MOL     Si463       463    0.00000000   28.085499
   464     UF_Si      1      MOL     Si464       464    0.00000000   28.085499
   465     UF_Si      1      MOL     Si465       465    0.00000000   28.085499
   466     UF_Si      1      MOL     Si466       466    0.00000000   28.085499
   467     UF_Si      1      MOL     Si467       467    0.00000000   28.085499
   468     UF_Si      1      MOL     Si468       468    0.00000000   28.085499
   469     UF_Si      1      MOL     Si469       469    0.00000000   28.085499
   470     UF_Si      1      MOL     Si470       470    0.00000000   28.085499
   471     UF_Si      1      MOL     Si471       471    0.00000000   28.085499
   472     UF_Si      1      MOL     Si472       472    0.00000000   28.085499
   473     UF_Si      1      MOL     Si473       473    0.00000000   28.085499
   474     UF_Si      1      MOL     Si474       474    0.00000000   28.085499
   475     o          1      MOL     O475        475    0.00000000   15.999405
   476     os         1      MOL     O476        476    0.00000000   15.999405
   477     os         1      MOL     O477        477    0.00000000   15.999405
   478     o          1      MOL     O478        478    0.00000000   15.999405
   479     os         1      MOL     O479        479    0.00000000   15.999405
   480     os         1      MOL     O480        480    0.00000000   15.999405
   481     os         1      MOL     O481        481    0.00000000   15.999405
   482     os         1      MOL     O482        482    0.00000000   15.999405
   483     os         1      MOL     O483        483    0.00000000   15.999405
   484     o          1      MOL     O484        484    0.00000000   15.999405
   485     os         1      MOL     O485        485    0.00000000   15.999405
   486     os         1      MOL     O486        486    0.00000000   15.999405
   487     os         1      MOL     O487        487    0.00000000   15.999405
   488     os         1      MOL     O488        488    0.00000000   15.999405
   489     os         1      MOL     O489        489    0.00000000   15.999405
   490     os         1      MOL     O490        490    0.00000000   15.999405
   491     os         1      MOL     O491        491    0.00000000   15.999405
   492     os         1      MOL     O492        492    0.00000000   15.999405
   493     os         1      MOL     O493        493    0.00000000   15.999405
   494     os         1      MOL     O494        494    0.00000000   15.999405
   495     os         1      MOL     O495        495    0.00000000   15.999405
   496     os         1      MOL     O496        496    0.00000000   15.999405
   497     UF_Si      1      MOL     Si497       497    0.00000000   28.085499
   498     UF_Si      1      MOL     Si498       498    0.00000000   28.085499
   499     UF_Si      1      MOL     Si499       499    0.00000000   28.085499
   500     UF_Si      1      MOL     Si500       500    0.00000000   28.085499
   501     UF_Si      1      MOL     Si501       501    0.00000000   28.085499
   502     UF_Si      1      MOL     Si502       502    0.00000000   28.085499
   503     UF_Si      1      MOL     Si503       503    0.00000000   28.085499
   504     UF_Si      1      MOL     Si504       504    0.00000000   28.085499
   505     UF_Si      1      MOL     Si505       505    0.00000000   28.085499
   506     UF_Si      1      MOL     Si506       506    0.00000000   28.085499
   507     UF_Si      1      MOL     Si507       507    0.00000000   28.085499
   508     UF_Si      1      MOL     Si508       508    0.00000000   28.085499
   509     os         1      MOL     O509        509    0.00000000   15.999405
   510     os         1      MOL     O510        510    0.00000000   15.999405
   511     os         1      MOL     O511        511    0.00000000   15.999405
   512     os         1      MOL     O512        512    0.00000000   15.999405
   513     os         1      MOL     O513        513    0.00000000   15.999405
   514     os         1      MOL     O514        514    0.00000000   15.999405
   515     os         1      MOL     O515        515    0.00000000   15.999405
   516     os         1      MOL     O516        516    0.00000000   15.999405
   517     os         1      MOL     O517        517    0.00000000   15.999405
   518     os         1      MOL     O518        518    0.00000000   15.999405
   519     os         1      MOL     O519        519    0.00000000   15.999405
   520     os         1      MOL     O520        520    0.00000000   15.999405
   521     os         1      MOL     O521        521    0.00000000   15.999405
   522     os         1      MOL     O522        522    0.00000000   15.999405
   523     os         1      MOL     O523        523    0.00000000   15.999405
   524     o          1      MOL     O524        524    0.00000000   15.999405
   525     os         1      MOL     O525        525    0.00000000   15.999405
   526     os         1      MOL     O526        526    0.00000000   15.999405
   527     os         1      MOL     O527        527    0.00000000   15.999405
   528     os         1      MOL     O528        528    0.00000000   15.999405
   529     os         1      MOL     O529        529    0.00000000   15.999405
   530     os         1      MOL     O530        530    0.00000000   15.999405
   531     UF_Si      1      MOL     Si531       531    0.00000000   28.085499
   532     UF_Si      1      MOL     Si532       532    0.00000000   28.085499
   533     UF_Si      1      MOL     Si533       533    0.00000000   28.085499
   534     UF_Si      1      MOL     Si534       534    0.00000000   28.085499
   535     UF_Si      1      MOL     Si535       535    0.00000000   28.085499
   536     UF_Si      1      MOL     Si536       536    0.00000000   28.085499
   537     UF_Si      1      MOL     Si537       537    0.00000000   28.085499
   538     UF_Si      1      MOL     Si538       538    0.00000000   28.085499
   539     UF_Si      1      MOL     Si539       539    0.00000000   28.085499
   540     UF_Si      1      MOL     Si540       540    0.00000000   28.085499
   541     UF_Si      1      MOL     Si541       541    0.00000000   28.085499
   542     UF_Si      1      MOL     Si542       542    0.00000000   28.085499
   543     os         1      MOL     O543        543    0.00000000   15.999405
   544     os         1      MOL     O544        544    0.00000000   15.999405
   545     os         1      MOL     O545        545    0.00000000   15.999405
   546     os         1      MOL     O546        546    0.00000000   15.999405
   547     os         1      MOL     O547        547    0.00000000   15.999405
   548     os         1      MOL     O548        548    0.00000000   15.999405
   549     os         1      MOL     O549        549    0.00000000   15.999405
   550     os         1      MOL     O550        550    0.00000000   15.999405
   551     os         1      MOL     O551        551    0.00000000   15.999405
   552     os         1      MOL     O552        552    0.00000000   15.999405
   553     os         1      MOL     O553        553    0.00000000   15.999405
   554     os         1      MOL     O554        554    0.00000000   15.999405
   555     os         1      MOL     O555        555    0.00000000   15.999405
   556     os         1      MOL     O556        556    0.00000000   15.999405
   557     os         1      MOL     O557        557    0.00000000   15.999405
   558     os         1      MOL     O558        558    0.00000000   15.999405
   559     os         1      MOL     O559        559    0.00000000   15.999405
   560     os         1      MOL     O560        560    0.00000000   15.999405
   561     os         1      MOL     O561        561    0.00000000   15.999405
   562     os         1      MOL     O562        562    0.00000000   15.999405
   563     os         1      MOL     O563        563    0.00000000   15.999405
   564     os         1      MOL     O564        564    0.00000000   15.999405
   565     UF_Si      1      MOL     Si565       565    0.00000000   28.085499
   566     UF_Si      1      MOL     Si566       566    0.00000000   28.085499
   567     UF_Si      1      MOL     Si567       567    0.00000000   28.085499
   568     UF_Si      1      MOL     Si568       568    0.00000000   28.085499
   569     UF_Si      1      MOL     Si569       569    0.00000000   28.085499
   570     UF_Si      1      MOL     Si570       570    0.00000000   28.085499
   571     UF_Si      1      MOL     Si571       571    0.00000000   28.085499
   572     UF_Si      1      MOL     Si572       572    0.00000000   28.085499
   573     UF_Si      1      MOL     Si573       573    0.00000000   28.085499
   574     UF_Si      1      MOL     Si574       574    0.00000000   28.085499
   575     UF_Si      1      MOL     Si575       575    0.00000000   28.085499
   576     UF_Si      1      MOL     Si576       576    0.00000000   28.085499
   577     os         1      MOL     O577        577    0.00000000   15.999405
   578     os         1      MOL     O578        578    0.00000000   15.999405
   579     os         1      MOL     O579        579    0.00000000   15.999405
   580     o          1      MOL     O580        580    0.00000000   15.999405
   581     os         1      MOL     O581        581    0.00000000   15.999405
   582     os         1      MOL     O582        582    0.00000000   15.999405
   583     os         1      MOL     O583        583    0.00000000   15.999405
   584     os         1      MOL     O584        584    0.00000000   15.999405
   585     os         1      MOL     O585        585    0.00000000   15.999405
   586     o          1      MOL     O586        586    0.00000000   15.999405
   587     os         1      MOL     O587        587    0.00000000   15.999405
   588     os         1      MOL     O588        588    0.00000000   15.999405
   589     os         1      MOL     O589        589    0.00000000   15.999405
   590     os         1      MOL     O590        590    0.00000000   15.999405
   591     os         1      MOL     O591        591    0.00000000   15.999405
   592     os         1      MOL     O592        592    0.00000000   15.999405
   593     os         1      MOL     O593        593    0.00000000   15.999405
   594     os         1      MOL     O594        594    0.00000000   15.999405
   595     os         1      MOL     O595        595    0.00000000   15.999405
   596     os         1      MOL     O596        596    0.00000000   15.999405
   597     os         1      MOL     O597        597    0.00000000   15.999405
   598     os         1      MOL     O598        598    0.00000000   15.999405
   599     os         1      MOL     O599        599    0.00000000   15.999405
   600     os         1      MOL     O600        600    0.00000000   15.999405
   601     os         1      MOL     O601        601    0.00000000   15.999405
   602     os         1      MOL     O602        602    0.00000000   15.999405
   603     UF_Si      1      MOL     Si603       603    0.00000000   28.085499
   604     UF_Si      1      MOL     Si604       604    0.00000000   28.085499
   605     UF_Si      1      MOL     Si605       605    0.00000000   28.085499
   606     UF_Si      1      MOL     Si606       606    0.00000000   28.085499
   607     UF_Si      1      MOL     Si607       607    0.00000000   28.085499
   608     UF_Si      1      MOL     Si608       608    0.00000000   28.085499
   609     UF_Si      1      MOL     Si609       609    0.00000000   28.085499
   610     UF_Si      1      MOL     Si610       610    0.00000000   28.085499
   611     UF_Si      1      MOL     Si611       611    0.00000000   28.085499
   612     UF_Si      1      MOL     Si612       612    0.00000000   28.085499
   613     UF_Si      1      MOL     Si613       613    0.00000000   28.085499
   614     UF_Si      1      MOL     Si614       614    0.00000000   28.085499
   615     os         1      MOL     O615        615    0.00000000   15.999405
   616     os         1      MOL     O616        616    0.00000000   15.999405
   617     os         1      MOL     O617        617    0.00000000   15.999405
   618     os         1      MOL     O618        618    0.00000000   15.999405
   619     os         1      MOL     O619        619    0.00000000   15.999405
   620     o          1      MOL     O620        620    0.00000000   15.999405
   621     os         1      MOL     O621        621    0.00000000   15.999405
   622     os         1      MOL     O622        622    0.00000000   15.999405
   623     os         1      MOL     O623        623    0.00000000   15.999405
   624     os         1      MOL     O624        624    0.00000000   15.999405
   625     os         1      MOL     O625        625    0.00000000   15.999405
   626     os         1      MOL     O626        626    0.00000000   15.999405
   627     os         1      MOL     O627        627    0.00000000   15.999405
   628     o          1      MOL     O628        628    0.00000000   15.999405
   629     os         1      MOL     O629        629    0.00000000   15.999405
   630     o          1      MOL     O630        630    0.00000000   15.999405
   631     os         1      MOL     O631        631    0.00000000   15.999405
   632     os         1      MOL     O632        632    0.00000000   15.999405
   633     os         1      MOL     O633        633    0.00000000   15.999405
   634     os         1      MOL     O634        634    0.00000000   15.999405
   635     os         1      MOL     O635        635    0.00000000   15.999405
   636     os         1      MOL     O636        636    0.00000000   15.999405
   637     os         1      MOL     O637        637    0.00000000   15.999405
   638     os         1      MOL     O638        638    0.00000000   15.999405
   639     os         1      MOL     O639        639    0.00000000   15.999405
   640     os         1      MOL     O640        640    0.00000000   15.999405
   641     UF_Si      1      MOL     Si641       641    0.00000000   28.085499
   642     UF_Si      1      MOL     Si642       642    0.00000000   28.085499
   643     UF_Si      1      MOL     Si643       643    0.00000000   28.085499
   644     UF_Si      1      MOL     Si644       644    0.00000000   28.085499
   645     UF_Si      1      MOL     Si645       645    0.00000000   28.085499
   646     UF_Si      1      MOL     Si646       646    0.00000000   28.085499
   647     UF_Si      1      MOL     Si647       647    0.00000000   28.085499
   648     UF_Si      1      MOL     Si648       648    0.00000000   28.085499
   649     UF_Si      1      MOL     Si649       649    0.00000000   28.085499
   650     UF_Si      1      MOL     Si650       650    0.00000000   28.085499
   651     UF_Si      1      MOL     Si651       651    0.00000000   28.085499
   652     UF_Si      1      MOL     Si652       652    0.00000000   28.085499
   653     o          1      MOL     O653        653    0.00000000   15.999405
   654     os         1      MOL     O654        654    0.00000000   15.999405
   655     os         1      MOL     O655        655    0.00000000   15.999405
   656     os         1      MOL     O656        656    0.00000000   15.999405
   657     os         1      MOL     O657        657    0.00000000   15.999405
   658     os         1      MOL     O658        658    0.00000000   15.999405
   659     os         1      MOL     O659        659    0.00000000   15.999405
   660     os         1      MOL     O660        660    0.00000000   15.999405
   661     os         1      MOL     O661        661    0.00000000   15.999405
   662     os         1      MOL     O662        662    0.00000000   15.999405
   663     os         1      MOL     O663        663    0.00000000   15.999405
   664     os         1      MOL     O664        664    0.00000000   15.999405
   665     os         1      MOL     O665        665    0.00000000   15.999405
   666     os         1      MOL     O666        666    0.00000000   15.999405
   667     os         1      MOL     O667        667    0.00000000   15.999405
   668     os         1      MOL     O668        668    0.00000000   15.999405
   669     os         1      MOL     O669        669    0.00000000   15.999405
   670     os         1      MOL     O670        670    0.00000000   15.999405
   671     os         1      MOL     O671        671    0.00000000   15.999405
   672     os         1      MOL     O672        672    0.00000000   15.999405
   673     os         1      MOL     O673        673    0.00000000   15.999405
   674     os         1      MOL     O674        674    0.00000000   15.999405
   675     os         1      MOL     O675        675    0.00000000   15.999405
   676     os         1      MOL     O676        676    0.00000000   15.999405
   677     os         1      MOL     O677        677    0.00000000   15.999405
   678     os         1      MOL     O678        678    0.00000000   15.999405
   679     UF_Si      1      MOL     Si679       679    0.00000000   28.085499
   680     UF_Si      1      MOL     Si680       680    0.00000000   28.085499
   681     UF_Si      1      MOL     Si681       681    0.00000000   28.085499
   682     UF_Si      1      MOL     Si682       682    0.00000000   28.085499
   683     UF_Si      1      MOL     Si683       683    0.00000000   28.085499
   684     UF_Si      1      MOL     Si684       684    0.00000000   28.085499
   685     UF_Si      1      MOL     Si685       685    0.00000000   28.085499
   686     UF_Si      1      MOL     Si686       686    0.00000000   28.085499
   687     UF_Si      1      MOL     Si687       687    0.00000000   28.085499
   688     UF_Si      1      MOL     Si688       688    0.00000000   28.085499
   689     UF_Si      1      MOL     Si689       689    0.00000000   28.085499
   690     UF_Si      1      MOL     Si690       690    0.00000000   28.085499
   691     os         1      MOL     O691        691    0.00000000   15.999405
   692     os         1      MOL     O692        692    0.00000000   15.999405
   693     os         1      MOL     O693        693    0.00000000   15.999405
   694     os         1      MOL     O694        694    0.00000000   15.999405
   695     os         1      MOL     O695        695    0.00000000   15.999405
   696     os         1      MOL     O696        696    0.00000000   15.999405
   697     os         1      MOL     O697        697    0.00000000   15.999405
   698     os         1      MOL     O698        698    0.00000000   15.999405
   699     os         1      MOL     O699        699    0.00000000   15.999405
   700     os         1      MOL     O700        700    0.00000000   15.999405
   701     os         1      MOL     O701        701    0.00000000   15.999405
   702     os         1      MOL     O702        702    0.00000000   15.999405
   703     os         1      MOL     O703        703    0.00000000   15.999405
   704     os         1      MOL     O704        704    0.00000000   15.999405
   705     os         1      MOL     O705        705    0.00000000   15.999405
   706     os         1      MOL     O706        706    0.00000000   15.999405
   707     os         1      MOL     O707        707    0.00000000   15.999405
   708     os         1      MOL     O708        708    0.00000000   15.999405
   709     os         1      MOL     O709        709    0.00000000   15.999405
   710     os         1      MOL     O710        710    0.00000000   15.999405
   711     os         1      MOL     O711        711    0.00000000   15.999405
   712     os         1      MOL     O712        712    0.00000000   15.999405
   713     os         1      MOL     O713        713    0.00000000   15.999405
   714     os         1      MOL     O714        714    0.00000000   15.999405
   715     os         1      MOL     O715        715    0.00000000   15.999405
   716     os         1      MOL     O716        716    0.00000000   15.999405
   717     UF_Si      1      MOL     Si717       717    0.00000000   28.085499
   718     UF_Si      1      MOL     Si718       718    0.00000000   28.085499
   719     UF_Si      1      MOL     Si719       719    0.00000000   28.085499
   720     UF_Si      1      MOL     Si720       720    0.00000000   28.085499
   721     UF_Si      1      MOL     Si721       721    0.00000000   28.085499
   722     UF_Si      1      MOL     Si722       722    0.00000000   28.085499
   723     UF_Si      1      MOL     Si723       723    0.00000000   28.085499
   724     UF_Si      1      MOL     Si724       724    0.00000000   28.085499
   725     UF_Si      1      MOL     Si725       725    0.00000000   28.085499
   726     UF_Si      1      MOL     Si726       726    0.00000000   28.085499
   727     UF_Si      1      MOL     Si727       727    0.00000000   28.085499
   728     UF_Si      1      MOL     Si728       728    0.00000000   28.085499
   729     os         1      MOL     O729        729    0.00000000   15.999405
   730     os         1      MOL     O730        730    0.00000000   15.999405
   731     os         1      MOL     O731        731    0.00000000   15.999405
   732     os         1      MOL     O732        732    0.00000000   15.999405
   733     os         1      MOL     O733        733    0.00000000   15.999405
   734     o          1      MOL     O734        734    0.00000000   15.999405
   735     os         1      MOL     O735        735    0.00000000   15.999405
   736     os         1      MOL     O736        736    0.00000000   15.999405
   737     os         1      MOL     O737        737    0.00000000   15.999405
   738     os         1      MOL     O738        738    0.00000000   15.999405
   739     os         1      MOL     O739        739    0.00000000   15.999405
   740     os         1      MOL     O740        740    0.00000000   15.999405
   741     os         1      MOL     O741        741    0.00000000   15.999405
   742     o          1      MOL     O742        742    0.00000000   15.999405
   743     os         1      MOL     O743        743    0.00000000   15.999405
   744     os         1      MOL     O744        744    0.00000000   15.999405
   745     os         1      MOL     O745        745    0.00000000   15.999405
   746     os         1      MOL     O746        746    0.00000000   15.999405
   747     os         1      MOL     O747        747    0.00000000   15.999405
   748     os         1      MOL     O748        748    0.00000000   15.999405
   749     os         1      MOL     O749        749    0.00000000   15.999405
   750     os         1      MOL     O750        750    0.00000000   15.999405
   751     UF_Si      1      MOL     Si751       751    0.00000000   28.085499
   752     UF_Si      1      MOL     Si752       752    0.00000000   28.085499
   753     UF_Si      1      MOL     Si753       753    0.00000000   28.085499
   754     UF_Si      1      MOL     Si754       754    0.00000000   28.085499
   755     UF_Si      1      MOL     Si755       755    0.00000000   28.085499
   756     UF_Si      1      MOL     Si756       756    0.00000000   28.085499
   757     UF_Si      1      MOL     Si757       757    0.00000000   28.085499
   758     UF_Si      1      MOL     Si758       758    0.00000000   28.085499
   759     UF_Si      1      MOL     Si759       759    0.00000000   28.085499
   760     UF_Si      1      MOL     Si760       760    0.00000000   28.085499
   761     UF_Si      1      MOL     Si761       761    0.00000000   28.085499
   762     UF_Si      1      MOL     Si762       762    0.00000000   28.085499
   763     o          1      MOL     O763        763    0.00000000   15.999405
   764     os         1      MOL     O764        764    0.00000000   15.999405
   765     os         1      MOL     O765        765    0.00000000   15.999405
   766     o          1      MOL     O766        766    0.00000000   15.999405
   767     os         1      MOL     O767        767    0.00000000   15.999405
   768     os         1      MOL     O768        768    0.00000000   15.999405
   769     os         1      MOL     O769        769    0.00000000   15.999405
   770     os         1      MOL     O770        770    0.00000000   15.999405
   771     os         1      MOL     O771        771    0.00000000   15.999405
   772     o          1      MOL     O772        772    0.00000000   15.999405
   773     os         1      MOL     O773        773    0.00000000   15.999405
   774     os         1      MOL     O774        774    0.00000000   15.999405
   775     os         1      MOL     O775        775    0.00000000   15.999405
   776     os         1      MOL     O776        776    0.00000000   15.999405
   777     os         1      MOL     O777        777    0.00000000   15.999405
   778     os         1      MOL     O778        778    0.00000000   15.999405
   779     os         1      MOL     O779        779    0.00000000   15.999405
   780     os         1      MOL     O780        780    0.00000000   15.999405
   781     os         1      MOL     O781        781    0.00000000   15.999405
   782     os         1      MOL     O782        782    0.00000000   15.999405
   783     os         1      MOL     O783        783    0.00000000   15.999405
   784     os         1      MOL     O784        784    0.00000000   15.999405
   785     UF_Si      1      MOL     Si785       785    0.00000000   28.085499
   786     UF_Si      1      MOL     Si786       786    0.00000000   28.085499
   787     UF_Si      1      MOL     Si787       787    0.00000000   28.085499
   788     UF_Si      1      MOL     Si788       788    0.00000000   28.085499
   789     UF_Si      1      MOL     Si789       789    0.00000000   28.085499
   790     UF_Si      1      MOL     Si790       790    0.00000000   28.085499
   791     UF_Si      1      MOL     Si791       791    0.00000000   28.085499
   792     UF_Si      1      MOL     Si792       792    0.00000000   28.085499
   793     UF_Si      1      MOL     Si793       793    0.00000000   28.085499
   794     UF_Si      1      MOL     Si794       794    0.00000000   28.085499
   795     UF_Si      1      MOL     Si795       795    0.00000000   28.085499
   796     UF_Si      1      MOL     Si796       796    0.00000000   28.085499
   797     os         1      MOL     O797        797    0.00000000   15.999405
   798     os         1      MOL     O798        798    0.00000000   15.999405
   799     os         1      MOL     O799        799    0.00000000   15.999405
   800     os         1      MOL     O800        800    0.00000000   15.999405
   801     os         1      MOL     O801        801    0.00000000   15.999405
   802     os         1      MOL     O802        802    0.00000000   15.999405
   803     os         1      MOL     O803        803    0.00000000   15.999405
   804     os         1      MOL     O804        804    0.00000000   15.999405
   805     os         1      MOL     O805        805    0.00000000   15.999405
   806     os         1      MOL     O806        806    0.00000000   15.999405
   807     os         1      MOL     O807        807    0.00000000   15.999405
   808     os         1      MOL     O808        808    0.00000000   15.999405
   809     os         1      MOL     O809        809    0.00000000   15.999405
   810     os         1      MOL     O810        810    0.00000000   15.999405
   811     os         1      MOL     O811        811    0.00000000   15.999405
   812     o          1      MOL     O812        812    0.00000000   15.999405
   813     os         1      MOL     O813        813    0.00000000   15.999405
   814     os         1      MOL     O814        814    0.00000000   15.999405
   815     os         1      MOL     O815        815    0.00000000   15.999405
   816     os         1      MOL     O816        816    0.00000000   15.999405
   817     os         1      MOL     O817        817    0.00000000   15.999405
   818     os         1      MOL     O818        818    0.00000000   15.999405
   819     UF_Si      1      MOL     Si819       819    0.00000000   28.085499
   820     UF_Si      1      MOL     Si820       820    0.00000000   28.085499
   821     UF_Si      1      MOL     Si821       821    0.00000000   28.085499
   822     UF_Si      1      MOL     Si822       822    0.00000000   28.085499
   823     UF_Si      1      MOL     Si823       823    0.00000000   28.085499
   824     UF_Si      1      MOL     Si824       824    0.00000000   28.085499
   825     UF_Si      1      MOL     Si825       825    0.00000000   28.085499
   826     UF_Si      1      MOL     Si826       826    0.00000000   28.085499
   827     UF_Si      1      MOL     Si827       827    0.00000000   28.085499
   828     UF_Si      1      MOL     Si828       828    0.00000000   28.085499
   829     UF_Si      1      MOL     Si829       829    0.00000000   28.085499
   830     UF_Si      1      MOL     Si830       830    0.00000000   28.085499
   831     os         1      MOL     O831        831    0.00000000   15.999405
   832     os         1      MOL     O832        832    0.00000000   15.999405
   833     os         1      MOL     O833        833    0.00000000   15.999405
   834     os         1      MOL     O834        834    0.00000000   15.999405
   835     os         1      MOL     O835        835    0.00000000   15.999405
   836     os         1      MOL     O836        836    0.00000000   15.999405
   837     os         1      MOL     O837        837    0.00000000   15.999405
   838     os         1      MOL     O838        838    0.00000000   15.999405
   839     os         1      MOL     O839        839    0.00000000   15.999405
   840     os         1      MOL     O840        840    0.00000000   15.999405
   841     os         1      MOL     O841        841    0.00000000   15.999405
   842     os         1      MOL     O842        842    0.00000000   15.999405
   843     os         1      MOL     O843        843    0.00000000   15.999405
   844     os         1      MOL     O844        844    0.00000000   15.999405
   845     os         1      MOL     O845        845    0.00000000   15.999405
   846     os         1      MOL     O846        846    0.00000000   15.999405
   847     os         1      MOL     O847        847    0.00000000   15.999405
   848     os         1      MOL     O848        848    0.00000000   15.999405
   849     os         1      MOL     O849        849    0.00000000   15.999405
   850     os         1      MOL     O850        850    0.00000000   15.999405
   851     os         1      MOL     O851        851    0.00000000   15.999405
   852     os         1      MOL     O852        852    0.00000000   15.999405
   853     UF_Si      1      MOL     Si853       853    0.00000000   28.085499
   854     UF_Si      1      MOL     Si854       854    0.00000000   28.085499
   855     UF_Si      1      MOL     Si855       855    0.00000000   28.085499
   856     UF_Si      1      MOL     Si856       856    0.00000000   28.085499
   857     UF_Si      1      MOL     Si857       857    0.00000000   28.085499
   858     UF_Si      1      MOL     Si858       858    0.00000000   28.085499
   859     UF_Si      1      MOL     Si859       859    0.00000000   28.085499
   860     UF_Si      1      MOL     Si860       860    0.00000000   28.085499
   861     UF_Si      1      MOL     Si861       861    0.00000000   28.085499
   862     UF_Si      1      MOL     Si862       862    0.00000000   28.085499
   863     UF_Si      1      MOL     Si863       863    0.00000000   28.085499
   864     UF_Si      1      MOL     Si864       864    0.00000000   28.085499
   865     os         1      MOL     O865        865    0.00000000   15.999405
   866     os         1      MOL     O866        866    0.00000000   15.999405
   867     os         1      MOL     O867        867    0.00000000   15.999405
   868     o          1      MOL     O868        868    0.00000000   15.999405
   869     o          1      MOL     O869        869    0.00000000   15.999405
   870     os         1      MOL     O870        870    0.00000000   15.999405
   871     os         1      MOL     O871        871    0.00000000   15.999405
   872     os         1      MOL     O872        872    0.00000000   15.999405
   873     os         1      MOL     O873        873    0.00000000   15.999405
   874     o          1      MOL     O874        874    0.00000000   15.999405
   875     os         1      MOL     O875        875    0.00000000   15.999405
   876     o          1      MOL     O876        876    0.00000000   15.999405
   877     os         1      MOL     O877        877    0.00000000   15.999405
   878     os         1      MOL     O878        878    0.00000000   15.999405
   879     os         1      MOL     O879        879    0.00000000   15.999405
   880     os         1      MOL     O880        880    0.00000000   15.999405
   881     os         1      MOL     O881        881    0.00000000   15.999405
   882     os         1      MOL     O882        882    0.00000000   15.999405
   883     o          1      MOL     O883        883    0.00000000   15.999405
   884     os         1      MOL     O884        884    0.00000000   15.999405
   885     os         1      MOL     O885        885    0.00000000   15.999405
   886     os         1      MOL     O886        886    0.00000000   15.999405
   887     os         1      MOL     O887        887    0.00000000   15.999405
   888     o          1      MOL     O888        888    0.00000000   15.999405
   889     os         1      MOL     O889        889    0.00000000   15.999405
   890     os         1      MOL     O890        890    0.00000000   15.999405
   891     UF_Si      1      MOL     Si891       891    0.00000000   28.085499
   892     UF_Si      1      MOL     Si892       892    0.00000000   28.085499
   893     UF_Si      1      MOL     Si893       893    0.00000000   28.085499
   894     UF_Si      1      MOL     Si894       894    0.00000000   28.085499
   895     UF_Si      1      MOL     Si895       895    0.00000000   28.085499
   896     UF_Si      1      MOL     Si896       896    0.00000000   28.085499
   897     UF_Si      1      MOL     Si897       897    0.00000000   28.085499
   898     UF_Si      1      MOL     Si898       898    0.00000000   28.085499
   899     UF_Si      1      MOL     Si899       899    0.00000000   28.085499
   900     UF_Si      1      MOL     Si900       900    0.00000000   28.085499
   901     UF_Si      1      MOL     Si901       901    0.00000000   28.085499
   902     UF_Si      1      MOL     Si902       902    0.00000000   28.085499
   903     os         1      MOL     O903        903    0.00000000   15.999405
   904     os         1      MOL     O904        904    0.00000000   15.999405
   905     os         1      MOL     O905        905    0.00000000   15.999405
   906     os         1      MOL     O906        906    0.00000000   15.999405
   907     os         1      MOL     O907        907    0.00000000   15.999405
   908     o          1      MOL     O908        908    0.00000000   15.999405
   909     os         1      MOL     O909        909    0.00000000   15.999405
   910     os         1      MOL     O910        910    0.00000000   15.999405
   911     os         1      MOL     O911        911    0.00000000   15.999405
   912     os         1      MOL     O912        912    0.00000000   15.999405
   913     os         1      MOL     O913        913    0.00000000   15.999405
   914     os         1      MOL     O914        914    0.00000000   15.999405
   915     os         1      MOL     O915        915    0.00000000   15.999405
   916     o          1      MOL     O916        916    0.00000000   15.999405
   917     os         1      MOL     O917        917    0.00000000   15.999405
   918     o          1      MOL     O918        918    0.00000000   15.999405
   919     os         1      MOL     O919        919    0.00000000   15.999405
   920     os         1      MOL     O920        920    0.00000000   15.999405
   921     os         1      MOL     O921        921    0.00000000   15.999405
   922     os         1      MOL     O922        922    0.00000000   15.999405
   923     os         1      MOL     O923        923    0.00000000   15.999405
   924     os         1      MOL     O924        924    0.00000000   15.999405
   925     os         1      MOL     O925        925    0.00000000   15.999405
   926     os         1      MOL     O926        926    0.00000000   15.999405
   927     os         1      MOL     O927        927    0.00000000   15.999405
   928     os         1      MOL     O928        928    0.00000000   15.999405
   929     UF_Si      1      MOL     Si929       929    0.00000000   28.085499
   930     UF_Si      1      MOL     Si930       930    0.00000000   28.085499
   931     UF_Si      1      MOL     Si931       931    0.00000000   28.085499
   932     UF_Si      1      MOL     Si932       932    0.00000000   28.085499
   933     UF_Si      1      MOL     Si933       933    0.00000000   28.085499
   934     UF_Si      1      MOL     Si934       934    0.00000000   28.085499
   935     UF_Si      1      MOL     Si935       935    0.00000000   28.085499
   936     UF_Si      1      MOL     Si936       936    0.00000000   28.085499
   937     UF_Si      1      MOL     Si937       937    0.00000000   28.085499
   938     UF_Si      1      MOL     Si938       938    0.00000000   28.085499
   939     UF_Si      1      MOL     Si939       939    0.00000000   28.085499
   940     UF_Si      1      MOL     Si940       940    0.00000000   28.085499
   941     o          1      MOL     O941        941    0.00000000   15.999405
   942     os         1      MOL     O942        942    0.00000000   15.999405
   943     os         1      MOL     O943        943    0.00000000   15.999405
   944     os         1      MOL     O944        944    0.00000000   15.999405
   945     os         1      MOL     O945        945    0.00000000   15.999405
   946     os         1      MOL     O946        946    0.00000000   15.999405
   947     os         1      MOL     O947        947    0.00000000   15.999405
   948     os         1      MOL     O948        948    0.00000000   15.999405
   949     os         1      MOL     O949        949    0.00000000   15.999405
   950     os         1      MOL     O950        950    0.00000000   15.999405
   951     os         1      MOL     O951        951    0.00000000   15.999405
   952     os         1      MOL     O952        952    0.00000000   15.999405
   953     os         1      MOL     O953        953    0.00000000   15.999405
   954     os         1      MOL     O954        954    0.00000000   15.999405
   955     os         1      MOL     O955        955    0.00000000   15.999405
   956     os         1      MOL     O956        956    0.00000000   15.999405
   957     os         1      MOL     O957        957    0.00000000   15.999405
   958     os         1      MOL     O958        958    0.00000000   15.999405
   959     os         1      MOL     O959        959    0.00000000   15.999405
   960     os         1      MOL     O960        960    0.00000000   15.999405
   961     os         1      MOL     O961        961    0.00000000   15.999405
   962     os         1      MOL     O962        962    0.00000000   15.999405
   963     os         1      MOL     O963        963    0.00000000   15.999405
   964     os         1      MOL     O964        964    0.00000000   15.999405
   965     os         1      MOL     O965        965    0.00000000   15.999405
   966     os         1      MOL     O966        966    0.00000000   15.999405
   967     UF_Si      1      MOL     Si967       967    0.00000000   28.085499
   968     UF_Si      1      MOL     Si968       968    0.00000000   28.085499
   969     UF_Si      1      MOL     Si969       969    0.00000000   28.085499
   970     UF_Si      1      MOL     Si970       970    0.00000000   28.085499
   971     UF_Si      1      MOL     Si971       971    0.00000000   28.085499
   972     UF_Si      1      MOL     Si972       972    0.00000000   28.085499
   973     UF_Si      1      MOL     Si973       973    0.00000000   28.085499
   974     UF_Si      1      MOL     Si974       974    0.00000000   28.085499
   975     UF_Si      1      MOL     Si975       975    0.00000000   28.085499
   976     UF_Si      1      MOL     Si976       976    0.00000000   28.085499
   977     UF_Si      1      MOL     Si977       977    0.00000000   28.085499
   978     UF_Si      1      MOL     Si978       978    0.00000000   28.085499
   979     os         1      MOL     O979        979    0.00000000   15.999405
   980     os         1      MOL     O980        980    0.00000000   15.999405
   981     os         1      MOL     O981        981    0.00000000   15.999405
   982     os         1      MOL     O982        982    0.00000000   15.999405
   983     os         1      MOL     O983        983    0.00000000   15.999405
   984     os         1      MOL     O984        984    0.00000000   15.999405
   985     os         1      MOL     O985        985    0.00000000   15.999405
   986     os         1      MOL     O986        986    0.00000000   15.999405
   987     os         1      MOL     O987        987    0.00000000   15.999405
   988     os         1      MOL     O988        988    0.00000000   15.999405
   989     os         1      MOL     O989        989    0.00000000   15.999405
   990     os         1      MOL     O990        990    0.00000000   15.999405
   991     os         1      MOL     O991        991    0.00000000   15.999405
   992     os         1      MOL     O992        992    0.00000000   15.999405
   993     os         1      MOL     O993        993    0.00000000   15.999405
   994     os         1      MOL     O994        994    0.00000000   15.999405
   995     os         1      MOL     O995        995    0.00000000   15.999405
   996     os         1      MOL     O996        996    0.00000000   15.999405
   997     os         1      MOL     O997        997    0.00000000   15.999405
   998     os         1      MOL     O998        998    0.00000000   15.999405
   999     os         1      MOL     O999        999    0.00000000   15.999405
  1000     os         1      MOL     O1000      1000    0.00000000   15.999405
  1001     os         1      MOL     O1001      1001    0.00000000   15.999405
  1002     os         1      MOL     O1002      1002    0.00000000   15.999405
  1003     os         1      MOL     O1003      1003    0.00000000   15.999405
  1004     os         1      MOL     O1004      1004    0.00000000   15.999405
  1005     UF_Si      1      MOL     Si1005     1005    0.00000000   28.085499
  1006     UF_Si      1      MOL     Si1006     1006    0.00000000   28.085499
  1007     UF_Si      1      MOL     Si1007     1007    0.00000000   28.085499
  1008     UF_Si      1      MOL     Si1008     1008    0.00000000   28.085499
  1009     UF_Si      1      MOL     Si1009     1009    0.00000000   28.085499
  1010     UF_Si      1      MOL     Si1010     1010    0.00000000   28.085499
  1011     UF_Si      1      MOL     Si1011     1011    0.00000000   28.085499
  1012     UF_Si      1      MOL     Si1012     1012    0.00000000   28.085499
  1013     UF_Si      1      MOL     Si1013     1013    0.00000000   28.085499
  1014     UF_Si      1      MOL     Si1014     1014    0.00000000   28.085499
  1015     UF_Si      1      MOL     Si1015     1015    0.00000000   28.085499
  1016     UF_Si      1      MOL     Si1016     1016    0.00000000   28.085499
  1017     os         1      MOL     O1017      1017    0.00000000   15.999405
  1018     os         1      MOL     O1018      1018    0.00000000   15.999405
  1019     os         1      MOL     O1019      1019    0.00000000   15.999405
  1020     os         1      MOL     O1020      1020    0.00000000   15.999405
  1021     os         1      MOL     O1021      1021    0.00000000   15.999405
  1022     o          1      MOL     O1022      1022    0.00000000   15.999405
  1023     os         1      MOL     O1023      1023    0.00000000   15.999405
  1024     os         1      MOL     O1024      1024    0.00000000   15.999405
  1025     os         1      MOL     O1025      1025    0.00000000   15.999405
  1026     os         1      MOL     O1026      1026    0.00000000   15.999405
  1027     os         1      MOL     O1027      1027    0.00000000   15.999405
  1028     os         1      MOL     O1028      1028    0.00000000   15.999405
  1029     os         1      MOL     O1029      1029    0.00000000   15.999405
  1030     o          1      MOL     O1030      1030    0.00000000   15.999405
  1031     os         1      MOL     O1031      1031    0.00000000   15.999405
  1032     os         1      MOL     O1032      1032    0.00000000   15.999405
  1033     os         1      MOL     O1033      1033    0.00000000   15.999405
  1034     os         1      MOL     O1034      1034    0.00000000   15.999405
  1035     os         1      MOL     O1035      1035    0.00000000   15.999405
  1036     os         1      MOL     O1036      1036    0.00000000   15.999405
  1037     os         1      MOL     O1037      1037    0.00000000   15.999405
  1038     os         1      MOL     O1038      1038    0.00000000   15.999405
  1039     UF_Si      1      MOL     Si1039     1039    0.00000000   28.085499
  1040     UF_Si      1      MOL     Si1040     1040    0.00000000   28.085499
  1041     UF_Si      1      MOL     Si1041     1041    0.00000000   28.085499
  1042     UF_Si      1      MOL     Si1042     1042    0.00000000   28.085499
  1043     UF_Si      1      MOL     Si1043     1043    0.00000000   28.085499
  1044     UF_Si      1      MOL     Si1044     1044    0.00000000   28.085499
  1045     UF_Si      1      MOL     Si1045     1045    0.00000000   28.085499
  1046     UF_Si      1      MOL     Si1046     1046    0.00000000   28.085499
  1047     UF_Si      1      MOL     Si1047     1047    0.00000000   28.085499
  1048     UF_Si      1      MOL     Si1048     1048    0.00000000   28.085499
  1049     UF_Si      1      MOL     Si1049     1049    0.00000000   28.085499
  1050     UF_Si      1      MOL     Si1050     1050    0.00000000   28.085499
  1051     o          1      MOL     O1051      1051    0.00000000   15.999405
  1052     os         1      MOL     O1052      1052    0.00000000   15.999405
  1053     os         1      MOL     O1053      1053    0.00000000   15.999405
  1054     o          1      MOL     O1054      1054    0.00000000   15.999405
  1055     os         1      MOL     O1055      1055    0.00000000   15.999405
  1056     os         1      MOL     O1056      1056    0.00000000   15.999405
  1057     os         1      MOL     O1057      1057    0.00000000   15.999405
  1058     os         1      MOL     O1058      1058    0.00000000   15.999405
  1059     os         1      MOL     O1059      1059    0.00000000   15.999405
  1060     o          1      MOL     O1060      1060    0.00000000   15.999405
  1061     os         1      MOL     O1061      1061    0.00000000   15.999405
  1062     os         1      MOL     O1062      1062    0.00000000   15.999405
  1063     os         1      MOL     O1063      1063    0.00000000   15.999405
  1064     os         1      MOL     O1064      1064    0.00000000   15.999405
  1065     os         1      MOL     O1065      1065    0.00000000   15.999405
  1066     os         1      MOL     O1066      1066    0.00000000   15.999405
  1067     os         1      MOL     O1067      1067    0.00000000   15.999405
  1068     os         1      MOL     O1068      1068    0.00000000   15.999405
  1069     os         1      MOL     O1069      1069    0.00000000   15.999405
  1070     os         1      MOL     O1070      1070    0.00000000   15.999405
  1071     os         1      MOL     O1071      1071    0.00000000   15.999405
  1072     os         1      MOL     O1072      1072    0.00000000   15.999405
  1073     UF_Si      1      MOL     Si1073     1073    0.00000000   28.085499
  1074     UF_Si      1      MOL     Si1074     1074    0.00000000   28.085499
  1075     UF_Si      1      MOL     Si1075     1075    0.00000000   28.085499
  1076     UF_Si      1      MOL     Si1076     1076    0.00000000   28.085499
  1077     UF_Si      1      MOL     Si1077     1077    0.00000000   28.085499
  1078     UF_Si      1      MOL     Si1078     1078    0.00000000   28.085499
  1079     UF_Si      1      MOL     Si1079     1079    0.00000000   28.085499
  1080     UF_Si      1      MOL     Si1080     1080    0.00000000   28.085499
  1081     UF_Si      1      MOL     Si1081     1081    0.00000000   28.085499
  1082     UF_Si      1      MOL     Si1082     1082    0.00000000   28.085499
  1083     UF_Si      1      MOL     Si1083     1083    0.00000000   28.085499
  1084     UF_Si      1      MOL     Si1084     1084    0.00000000   28.085499
  1085     os         1      MOL     O1085      1085    0.00000000   15.999405
  1086     os         1      MOL     O1086      1086    0.00000000   15.999405
  1087     os         1      MOL     O1087      1087    0.00000000   15.999405
  1088     os         1      MOL     O1088      1088    0.00000000   15.999405
  1089     os         1      MOL     O1089      1089    0.00000000   15.999405
  1090     os         1      MOL     O1090      1090    0.00000000   15.999405
  1091     os         1      MOL     O1091      1091    0.00000000   15.999405
  1092     os         1      MOL     O1092      1092    0.00000000   15.999405
  1093     os         1      MOL     O1093      1093    0.00000000   15.999405
  1094     os         1      MOL     O1094      1094    0.00000000   15.999405
  1095     os         1      MOL     O1095      1095    0.00000000   15.999405
  1096     os         1      MOL     O1096      1096    0.00000000   15.999405
  1097     os         1      MOL     O1097      1097    0.00000000   15.999405
  1098     os         1      MOL     O1098      1098    0.00000000   15.999405
  1099     os         1      MOL     O1099      1099    0.00000000   15.999405
  1100     o          1      MOL     O1100      1100    0.00000000   15.999405
  1101     os         1      MOL     O1101      1101    0.00000000   15.999405
  1102     os         1      MOL     O1102      1102    0.00000000   15.999405
  1103     os         1      MOL     O1103      1103    0.00000000   15.999405
  1104     os         1      MOL     O1104      1104    0.00000000   15.999405
  1105     os         1      MOL     O1105      1105    0.00000000   15.999405
  1106     os         1      MOL     O1106      1106    0.00000000   15.999405
  1107     UF_Si      1      MOL     Si1107     1107    0.00000000   28.085499
  1108     UF_Si      1      MOL     Si1108     1108    0.00000000   28.085499
  1109     UF_Si      1      MOL     Si1109     1109    0.00000000   28.085499
  1110     UF_Si      1      MOL     Si1110     1110    0.00000000   28.085499
  1111     UF_Si      1      MOL     Si1111     1111    0.00000000   28.085499
  1112     UF_Si      1      MOL     Si1112     1112    0.00000000   28.085499
  1113     UF_Si      1      MOL     Si1113     1113    0.00000000   28.085499
  1114     UF_Si      1      MOL     Si1114     1114    0.00000000   28.085499
  1115     UF_Si      1      MOL     Si1115     1115    0.00000000   28.085499
  1116     UF_Si      1      MOL     Si1116     1116    0.00000000   28.085499
  1117     UF_Si      1      MOL     Si1117     1117    0.00000000   28.085499
  1118     UF_Si      1      MOL     Si1118     1118    0.00000000   28.085499
  1119     os         1      MOL     O1119      1119    0.00000000   15.999405
  1120     os         1      MOL     O1120      1120    0.00000000   15.999405
  1121     os         1      MOL     O1121      1121    0.00000000   15.999405
  1122     os         1      MOL     O1122      1122    0.00000000   15.999405
  1123     o          1      MOL     O1123      1123    0.00000000   15.999405
  1124     os         1      MOL     O1124      1124    0.00000000   15.999405
  1125     os         1      MOL     O1125      1125    0.00000000   15.999405
  1126     os         1      MOL     O1126      1126    0.00000000   15.999405
  1127     os         1      MOL     O1127      1127    0.00000000   15.999405
  1128     os         1      MOL     O1128      1128    0.00000000   15.999405
  1129     os         1      MOL     O1129      1129    0.00000000   15.999405
  1130     o          1      MOL     O1130      1130    0.00000000   15.999405
  1131     os         1      MOL     O1131      1131    0.00000000   15.999405
  1132     os         1      MOL     O1132      1132    0.00000000   15.999405
  1133     os         1      MOL     O1133      1133    0.00000000   15.999405
  1134     os         1      MOL     O1134      1134    0.00000000   15.999405
  1135     os         1      MOL     O1135      1135    0.00000000   15.999405
  1136     o          1      MOL     O1136      1136    0.00000000   15.999405
  1137     os         1      MOL     O1137      1137    0.00000000   15.999405
  1138     os         1      MOL     O1138      1138    0.00000000   15.999405
  1139     o          1      MOL     O1139      1139    0.00000000   15.999405
  1140     os         1      MOL     O1140      1140    0.00000000   15.999405
  1141     UF_Si      1      MOL     Si1141     1141    0.00000000   28.085499
  1142     UF_Si      1      MOL     Si1142     1142    0.00000000   28.085499
  1143     UF_Si      1      MOL     Si1143     1143    0.00000000   28.085499
  1144     UF_Si      1      MOL     Si1144     1144    0.00000000   28.085499
  1145     UF_Si      1      MOL     Si1145     1145    0.00000000   28.085499
  1146     UF_Si      1      MOL     Si1146     1146    0.00000000   28.085499
  1147     UF_Si      1      MOL     Si1147     1147    0.00000000   28.085499
  1148     UF_Si      1      MOL     Si1148     1148    0.00000000   28.085499
  1149     UF_Si      1      MOL     Si1149     1149    0.00000000   28.085499
  1150     UF_Si      1      MOL     Si1150     1150    0.00000000   28.085499
  1151     UF_Si      1      MOL     Si1151     1151    0.00000000   28.085499
  1152     UF_Si      1      MOL     Si1152     1152    0.00000000   28.085499
  1153     os         1      MOL     O1153      1153    0.00000000   15.999405
  1154     os         1      MOL     O1154      1154    0.00000000   15.999405
  1155     os         1      MOL     O1155      1155    0.00000000   15.999405
  1156     os         1      MOL     O1156      1156    0.00000000   15.999405
  1157     os         1      MOL     O1157      1157    0.00000000   15.999405
  1158     os         1      MOL     O1158      1158    0.00000000   15.999405
  1159     os         1      MOL     O1159      1159    0.00000000   15.999405
  1160     os         1      MOL     O1160      1160    0.00000000   15.999405
  1161     os         1      MOL     O1161      1161    0.00000000   15.999405
  1162     os         1      MOL     O1162      1162    0.00000000   15.999405
  1163     os         1      MOL     O1163      1163    0.00000000   15.999405
  1164     os         1      MOL     O1164      1164    0.00000000   15.999405
  1165     os         1      MOL     O1165      1165    0.00000000   15.999405
  1166     os         1      MOL     O1166      1166    0.00000000   15.999405
  1167     os         1      MOL     O1167      1167    0.00000000   15.999405
  1168     os         1      MOL     O1168      1168    0.00000000   15.999405
  1169     os         1      MOL     O1169      1169    0.00000000   15.999405
  1170     os         1      MOL     O1170      1170    0.00000000   15.999405
  1171     os         1      MOL     O1171      1171    0.00000000   15.999405
  1172     os         1      MOL     O1172      1172    0.00000000   15.999405
  1173     os         1      MOL     O1173      1173    0.00000000   15.999405
  1174     os         1      MOL     O1174      1174    0.00000000   15.999405
  1175     os         1      MOL     O1175      1175    0.00000000   15.999405
  1176     os         1      MOL     O1176      1176    0.00000000   15.999405
  1177     os         1      MOL     O1177      1177    0.00000000   15.999405
  1178     os         1      MOL     O1178      1178    0.00000000   15.999405
  1179     UF_Si      1      MOL     Si1179     1179    0.00000000   28.085499
  1180     UF_Si      1      MOL     Si1180     1180    0.00000000   28.085499
  1181     UF_Si      1      MOL     Si1181     1181    0.00000000   28.085499
  1182     UF_Si      1      MOL     Si1182     1182    0.00000000   28.085499
  1183     UF_Si      1      MOL     Si1183     1183    0.00000000   28.085499
  1184     UF_Si      1      MOL     Si1184     1184    0.00000000   28.085499
  1185     UF_Si      1      MOL     Si1185     1185    0.00000000   28.085499
  1186     UF_Si      1      MOL     Si1186     1186    0.00000000   28.085499
  1187     UF_Si      1      MOL     Si1187     1187    0.00000000   28.085499
  1188     UF_Si      1      MOL     Si1188     1188    0.00000000   28.085499
  1189     UF_Si      1      MOL     Si1189     1189    0.00000000   28.085499
  1190     UF_Si      1      MOL     Si1190     1190    0.00000000   28.085499
  1191     os         1      MOL     O1191      1191    0.00000000   15.999405
  1192     os         1      MOL     O1192      1192    0.00000000   15.999405
  1193     os         1      MOL     O1193      1193    0.00000000   15.999405
  1194     os         1      MOL     O1194      1194    0.00000000   15.999405
  1195     os         1      MOL     O1195      1195    0.00000000   15.999405
  1196     os         1      MOL     O1196      1196    0.00000000   15.999405
  1197     os         1      MOL     O1197      1197    0.00000000   15.999405
  1198     os         1      MOL     O1198      1198    0.00000000   15.999405
  1199     os         1      MOL     O1199      1199    0.00000000   15.999405
  1200     os         1      MOL     O1200      1200    0.00000000   15.999405
  1201     os         1      MOL     O1201      1201    0.00000000   15.999405
  1202     os         1      MOL     O1202      1202    0.00000000   15.999405
  1203     os         1      MOL     O1203      1203    0.00000000   15.999405
  1204     os         1      MOL     O1204      1204    0.00000000   15.999405
  1205     os         1      MOL     O1205      1205    0.00000000   15.999405
  1206     o          1      MOL     O1206      1206    0.00000000   15.999405
  1207     os         1      MOL     O1207      1207    0.00000000   15.999405
  1208     os         1      MOL     O1208      1208    0.00000000   15.999405
  1209     os         1      MOL     O1209      1209    0.00000000   15.999405
  1210     os         1      MOL     O1210      1210    0.00000000   15.999405
  1211     os         1      MOL     O1211      1211    0.00000000   15.999405
  1212     os         1      MOL     O1212      1212    0.00000000   15.999405
  1213     os         1      MOL     O1213      1213    0.00000000   15.999405
  1214     os         1      MOL     O1214      1214    0.00000000   15.999405
  1215     os         1      MOL     O1215      1215    0.00000000   15.999405
  1216     os         1      MOL     O1216      1216    0.00000000   15.999405
  1217     UF_Si      1      MOL     Si1217     1217    0.00000000   28.085499
  1218     UF_Si      1      MOL     Si1218     1218    0.00000000   28.085499
  1219     UF_Si      1      MOL     Si1219     1219    0.00000000   28.085499
  1220     UF_Si      1      MOL     Si1220     1220    0.00000000   28.085499
  1221     UF_Si      1      MOL     Si1221     1221    0.00000000   28.085499
  1222     UF_Si      1      MOL     Si1222     1222    0.00000000   28.085499
  1223     UF_Si      1      MOL     Si1223     1223    0.00000000   28.085499
  1224     UF_Si      1      MOL     Si1224     1224    0.00000000   28.085499
  1225     UF_Si      1      MOL     Si1225     1225    0.00000000   28.085499
  1226     UF_Si      1      MOL     Si1226     1226    0.00000000   28.085499
  1227     UF_Si      1      MOL     Si1227     1227    0.00000000   28.085499
  1228     UF_Si      1      MOL     Si1228     1228    0.00000000   28.085499
  1229     o          1      MOL     O1229      1229    0.00000000   15.999405
  1230     os         1      MOL     O1230      1230    0.00000000   15.999405
  1231     os         1      MOL     O1231      1231    0.00000000   15.999405
  1232     os         1      MOL     O1232      1232    0.00000000   15.999405
  1233     os         1      MOL     O1233      1233    0.00000000   15.999405
  1234     os         1      MOL     O1234      1234    0.00000000   15.999405
  1235     os         1      MOL     O1235      1235    0.00000000   15.999405
  1236     os         1      MOL     O1236      1236    0.00000000   15.999405
  1237     os         1      MOL     O1237      1237    0.00000000   15.999405
  1238     os         1      MOL     O1238      1238    0.00000000   15.999405
  1239     os         1      MOL     O1239      1239    0.00000000   15.999405
  1240     os         1      MOL     O1240      1240    0.00000000   15.999405
  1241     os         1      MOL     O1241      1241    0.00000000   15.999405
  1242     os         1      MOL     O1242      1242    0.00000000   15.999405
  1243     os         1      MOL     O1243      1243    0.00000000   15.999405
  1244     os         1      MOL     O1244      1244    0.00000000   15.999405
  1245     os         1      MOL     O1245      1245    0.00000000   15.999405
  1246     os         1      MOL     O1246      1246    0.00000000   15.999405
  1247     os         1      MOL     O1247      1247    0.00000000   15.999405
  1248     os         1      MOL     O1248      1248    0.00000000   15.999405
  1249     os         1      MOL     O1249      1249    0.00000000   15.999405
  1250     os         1      MOL     O1250      1250    0.00000000   15.999405
  1251     os         1      MOL     O1251      1251    0.00000000   15.999405
  1252     os         1      MOL     O1252      1252    0.00000000   15.999405
  1253     os         1      MOL     O1253      1253    0.00000000   15.999405
  1254     os         1      MOL     O1254      1254    0.00000000   15.999405
  1255     UF_Si      1      MOL     Si1255     1255    0.00000000   28.085499
  1256     UF_Si      1      MOL     Si1256     1256    0.00000000   28.085499
  1257     UF_Si      1      MOL     Si1257     1257    0.00000000   28.085499
  1258     UF_Si      1      MOL     Si1258     1258    0.00000000   28.085499
  1259     UF_Si      1      MOL     Si1259     1259    0.00000000   28.085499
  1260     UF_Si      1      MOL     Si1260     1260    0.00000000   28.085499
  1261     UF_Si      1      MOL     Si1261     1261    0.00000000   28.085499
  1262     UF_Si      1      MOL     Si1262     1262    0.00000000   28.085499
  1263     UF_Si      1      MOL     Si1263     1263    0.00000000   28.085499
  1264     UF_Si      1      MOL     Si1264     1264    0.00000000   28.085499
  1265     UF_Si      1      MOL     Si1265     1265    0.00000000   28.085499
  1266     UF_Si      1      MOL     Si1266     1266    0.00000000   28.085499
  1267     os         1      MOL     O1267      1267    0.00000000   15.999405
  1268     os         1      MOL     O1268      1268    0.00000000   15.999405
  1269     os         1      MOL     O1269      1269    0.00000000   15.999405
  1270     os         1      MOL     O1270      1270    0.00000000   15.999405
  1271     o          1      MOL     O1271      1271    0.00000000   15.999405
  1272     os         1      MOL     O1272      1272    0.00000000   15.999405
  1273     os         1      MOL     O1273      1273    0.00000000   15.999405
  1274     os         1      MOL     O1274      1274    0.00000000   15.999405
  1275     os         1      MOL     O1275      1275    0.00000000   15.999405
  1276     os         1      MOL     O1276      1276    0.00000000   15.999405
  1277     os         1      MOL     O1277      1277    0.00000000   15.999405
  1278     o          1      MOL     O1278      1278    0.00000000   15.999405
  1279     os         1      MOL     O1279      1279    0.00000000   15.999405
  1280     os         1      MOL     O1280      1280    0.00000000   15.999405
  1281     os         1      MOL     O1281      1281    0.00000000   15.999405
  1282     os         1      MOL     O1282      1282    0.00000000   15.999405
  1283     os         1      MOL     O1283      1283    0.00000000   15.999405
  1284     os         1      MOL     O1284      1284    0.00000000   15.999405
  1285     o          1      MOL     O1285      1285    0.00000000   15.999405
  1286     os         1      MOL     O1286      1286    0.00000000   15.999405
  1287     os         1      MOL     O1287      1287    0.00000000   15.999405
  1288     os         1      MOL     O1288      1288    0.00000000   15.999405
  1289     os         1      MOL     O1289      1289    0.00000000   15.999405
  1290     o          1      MOL     O1290      1290    0.00000000   15.999405
  1291     os         1      MOL     O1291      1291    0.00000000   15.999405
  1292     os         1      MOL     O1292      1292    0.00000000   15.999405
  1293     UF_Si      1      MOL     Si1293     1293    0.00000000   28.085499
  1294     UF_Si      1      MOL     Si1294     1294    0.00000000   28.085499
  1295     UF_Si      1      MOL     Si1295     1295    0.00000000   28.085499
  1296     UF_Si      1      MOL     Si1296     1296    0.00000000   28.085499
  1297     UF_Si      1      MOL     Si1297     1297    0.00000000   28.085499
  1298     UF_Si      1      MOL     Si1298     1298    0.00000000   28.085499
  1299     UF_Si      1      MOL     Si1299     1299    0.00000000   28.085499
  1300     UF_Si      1      MOL     Si1300     1300    0.00000000   28.085499
  1301     UF_Si      1      MOL     Si1301     1301    0.00000000   28.085499
  1302     UF_Si      1      MOL     Si1302     1302    0.00000000   28.085499
  1303     UF_Si      1      MOL     Si1303     1303    0.00000000   28.085499
  1304     UF_Si      1      MOL     Si1304     1304    0.00000000   28.085499
  1305     os         1      MOL     O1305      1305    0.00000000   15.999405
  1306     os         1      MOL     O1306      1306    0.00000000   15.999405
  1307     os         1      MOL     O1307      1307    0.00000000   15.999405
  1308     os         1      MOL     O1308      1308    0.00000000   15.999405
  1309     o          1      MOL     O1309      1309    0.00000000   15.999405
  1310     os         1      MOL     O1310      1310    0.00000000   15.999405
  1311     os         1      MOL     O1311      1311    0.00000000   15.999405
  1312     os         1      MOL     O1312      1312    0.00000000   15.999405
  1313     os         1      MOL     O1313      1313    0.00000000   15.999405
  1314     os         1      MOL     O1314      1314    0.00000000   15.999405
  1315     os         1      MOL     O1315      1315    0.00000000   15.999405
  1316     o          1      MOL     O1316      1316    0.00000000   15.999405
  1317     os         1      MOL     O1317      1317    0.00000000   15.999405
  1318     os         1      MOL     O1318      1318    0.00000000   15.999405
  1319     os         1      MOL     O1319      1319    0.00000000   15.999405
  1320     os         1      MOL     O1320      1320    0.00000000   15.999405
  1321     os         1      MOL     O1321      1321    0.00000000   15.999405
  1322     o          1      MOL     O1322      1322    0.00000000   15.999405
  1323     os         1      MOL     O1323      1323    0.00000000   15.999405
  1324     os         1      MOL     O1324      1324    0.00000000   15.999405
  1325     o          1      MOL     O1325      1325    0.00000000   15.999405
  1326     os         1      MOL     O1326      1326    0.00000000   15.999405
  1327     UF_Si      1      MOL     Si1327     1327    0.00000000   28.085499
  1328     UF_Si      1      MOL     Si1328     1328    0.00000000   28.085499
  1329     UF_Si      1      MOL     Si1329     1329    0.00000000   28.085499
  1330     UF_Si      1      MOL     Si1330     1330    0.00000000   28.085499
  1331     UF_Si      1      MOL     Si1331     1331    0.00000000   28.085499
  1332     UF_Si      1      MOL     Si1332     1332    0.00000000   28.085499
  1333     UF_Si      1      MOL     Si1333     1333    0.00000000   28.085499
  1334     UF_Si      1      MOL     Si1334     1334    0.00000000   28.085499
  1335     UF_Si      1      MOL     Si1335     1335    0.00000000   28.085499
  1336     UF_Si      1      MOL     Si1336     1336    0.00000000   28.085499
  1337     UF_Si      1      MOL     Si1337     1337    0.00000000   28.085499
  1338     UF_Si      1      MOL     Si1338     1338    0.00000000   28.085499
  1339     o          1      MOL     O1339      1339    0.00000000   15.999405
  1340     os         1      MOL     O1340      1340    0.00000000   15.999405
  1341     os         1      MOL     O1341      1341    0.00000000   15.999405
  1342     os         1      MOL     O1342      1342    0.00000000   15.999405
  1343     os         1      MOL     O1343      1343    0.00000000   15.999405
  1344     os         1      MOL     O1344      1344    0.00000000   15.999405
  1345     os         1      MOL     O1345      1345    0.00000000   15.999405
  1346     os         1      MOL     O1346      1346    0.00000000   15.999405
  1347     os         1      MOL     O1347      1347    0.00000000   15.999405
  1348     os         1      MOL     O1348      1348    0.00000000   15.999405
  1349     os         1      MOL     O1349      1349    0.00000000   15.999405
  1350     os         1      MOL     O1350      1350    0.00000000   15.999405
  1351     os         1      MOL     O1351      1351    0.00000000   15.999405
  1352     os         1      MOL     O1352      1352    0.00000000   15.999405
  1353     os         1      MOL     O1353      1353    0.00000000   15.999405
  1354     os         1      MOL     O1354      1354    0.00000000   15.999405
  1355     os         1      MOL     O1355      1355    0.00000000   15.999405
  1356     os         1      MOL     O1356      1356    0.00000000   15.999405
  1357     os         1      MOL     O1357      1357    0.00000000   15.999405
  1358     os         1      MOL     O1358      1358    0.00000000   15.999405
  1359     os         1      MOL     O1359      1359    0.00000000   15.999405
  1360     os         1      MOL     O1360      1360    0.00000000   15.999405
  1361     UF_Si      1      MOL     Si1361     1361    0.00000000   28.085499
  1362     UF_Si      1      MOL     Si1362     1362    0.00000000   28.085499
  1363     UF_Si      1      MOL     Si1363     1363    0.00000000   28.085499
  1364     UF_Si      1      MOL     Si1364     1364    0.00000000   28.085499
  1365     UF_Si      1      MOL     Si1365     1365    0.00000000   28.085499
  1366     UF_Si      1      MOL     Si1366     1366    0.00000000   28.085499
  1367     UF_Si      1      MOL     Si1367     1367    0.00000000   28.085499
  1368     UF_Si      1      MOL     Si1368     1368    0.00000000   28.085499
  1369     UF_Si      1      MOL     Si1369     1369    0.00000000   28.085499
  1370     UF_Si      1      MOL     Si1370     1370    0.00000000   28.085499
  1371     UF_Si      1      MOL     Si1371     1371    0.00000000   28.085499
  1372     UF_Si      1      MOL     Si1372     1372    0.00000000   28.085499
  1373     os         1      MOL     O1373      1373    0.00000000   15.999405
  1374     os         1      MOL     O1374      1374    0.00000000   15.999405
  1375     os         1      MOL     O1375      1375    0.00000000   15.999405
  1376     os         1      MOL     O1376      1376    0.00000000   15.999405
  1377     os         1      MOL     O1377      1377    0.00000000   15.999405
  1378     os         1      MOL     O1378      1378    0.00000000   15.999405
  1379     os         1      MOL     O1379      1379    0.00000000   15.999405
  1380     os         1      MOL     O1380      1380    0.00000000   15.999405
  1381     os         1      MOL     O1381      1381    0.00000000   15.999405
  1382     os         1      MOL     O1382      1382    0.00000000   15.999405
  1383     os         1      MOL     O1383      1383    0.00000000   15.999405
  1384     os         1      MOL     O1384      1384    0.00000000   15.999405
  1385     os         1      MOL     O1385      1385    0.00000000   15.999405
  1386     os         1      MOL     O1386      1386    0.00000000   15.999405
  1387     os         1      MOL     O1387      1387    0.00000000   15.999405
  1388     o          1      MOL     O1388      1388    0.00000000   15.999405
  1389     os         1      MOL     O1389      1389    0.00000000   15.999405
  1390     os         1      MOL     O1390      1390    0.00000000   15.999405
  1391     os         1      MOL     O1391      1391    0.00000000   15.999405
  1392     os         1      MOL     O1392      1392    0.00000000   15.999405
  1393     os         1      MOL     O1393      1393    0.00000000   15.999405
  1394     os         1      MOL     O1394      1394    0.00000000   15.999405
  1395     UF_Si      1      MOL     Si1395     1395    0.00000000   28.085499
  1396     UF_Si      1      MOL     Si1396     1396    0.00000000   28.085499
  1397     UF_Si      1      MOL     Si1397     1397    0.00000000   28.085499
  1398     UF_Si      1      MOL     Si1398     1398    0.00000000   28.085499
  1399     UF_Si      1      MOL     Si1399     1399    0.00000000   28.085499
  1400     UF_Si      1      MOL     Si1400     1400    0.00000000   28.085499
  1401     UF_Si      1      MOL     Si1401     1401    0.00000000   28.085499
  1402     UF_Si      1      MOL     Si1402     1402    0.00000000   28.085499
  1403     UF_Si      1      MOL     Si1403     1403    0.00000000   28.085499
  1404     UF_Si      1      MOL     Si1404     1404    0.00000000   28.085499
  1405     UF_Si      1      MOL     Si1405     1405    0.00000000   28.085499
  1406     UF_Si      1      MOL     Si1406     1406    0.00000000   28.085499
  1407     os         1      MOL     O1407      1407    0.00000000   15.999405
  1408     os         1      MOL     O1408      1408    0.00000000   15.999405
  1409     os         1      MOL     O1409      1409    0.00000000   15.999405
  1410     os         1      MOL     O1410      1410    0.00000000   15.999405
  1411     os         1      MOL     O1411      1411    0.00000000   15.999405
  1412     os         1      MOL     O1412      1412    0.00000000   15.999405
  1413     os         1      MOL     O1413      1413    0.00000000   15.999405
  1414     os         1      MOL     O1414      1414    0.00000000   15.999405
  1415     os         1      MOL     O1415      1415    0.00000000   15.999405
  1416     os         1      MOL     O1416      1416    0.00000000   15.999405
  1417     os         1      MOL     O1417      1417    0.00000000   15.999405
  1418     os         1      MOL     O1418      1418    0.00000000   15.999405
  1419     os         1      MOL     O1419      1419    0.00000000   15.999405
  1420     os         1      MOL     O1420      1420    0.00000000   15.999405
  1421     os         1      MOL     O1421      1421    0.00000000   15.999405
  1422     os         1      MOL     O1422      1422    0.00000000   15.999405
  1423     os         1      MOL     O1423      1423    0.00000000   15.999405
  1424     os         1      MOL     O1424      1424    0.00000000   15.999405
  1425     os         1      MOL     O1425      1425    0.00000000   15.999405
  1426     os         1      MOL     O1426      1426    0.00000000   15.999405
  1427     os         1      MOL     O1427      1427    0.00000000   15.999405
  1428     os         1      MOL     O1428      1428    0.00000000   15.999405
  1429     UF_Si      1      MOL     Si1429     1429    0.00000000   28.085499
  1430     UF_Si      1      MOL     Si1430     1430    0.00000000   28.085499
  1431     UF_Si      1      MOL     Si1431     1431    0.00000000   28.085499
  1432     UF_Si      1      MOL     Si1432     1432    0.00000000   28.085499
  1433     UF_Si      1      MOL     Si1433     1433    0.00000000   28.085499
  1434     UF_Si      1      MOL     Si1434     1434    0.00000000   28.085499
  1435     UF_Si      1      MOL     Si1435     1435    0.00000000   28.085499
  1436     UF_Si      1      MOL     Si1436     1436    0.00000000   28.085499
  1437     UF_Si      1      MOL     Si1437     1437    0.00000000   28.085499
  1438     UF_Si      1      MOL     Si1438     1438    0.00000000   28.085499
  1439     UF_Si      1      MOL     Si1439     1439    0.00000000   28.085499
  1440     UF_Si      1      MOL     Si1440     1440    0.00000000   28.085499
  1441     os         1      MOL     O1441      1441    0.00000000   15.999405
  1442     os         1      MOL     O1442      1442    0.00000000   15.999405
  1443     os         1      MOL     O1443      1443    0.00000000   15.999405
  1444     os         1      MOL     O1444      1444    0.00000000   15.999405
  1445     os         1      MOL     O1445      1445    0.00000000   15.999405
  1446     os         1      MOL     O1446      1446    0.00000000   15.999405
  1447     os         1      MOL     O1447      1447    0.00000000   15.999405
  1448     os         1      MOL     O1448      1448    0.00000000   15.999405
  1449     os         1      MOL     O1449      1449    0.00000000   15.999405
  1450     os         1      MOL     O1450      1450    0.00000000   15.999405
  1451     os         1      MOL     O1451      1451    0.00000000   15.999405
  1452     os         1      MOL     O1452      1452    0.00000000   15.999405
  1453     os         1      MOL     O1453      1453    0.00000000   15.999405
  1454     os         1      MOL     O1454      1454    0.00000000   15.999405
  1455     os         1      MOL     O1455      1455    0.00000000   15.999405
  1456     os         1      MOL     O1456      1456    0.00000000   15.999405
  1457     os         1      MOL     O1457      1457    0.00000000   15.999405
  1458     os         1      MOL     O1458      1458    0.00000000   15.999405
  1459     os         1      MOL     O1459      1459    0.00000000   15.999405
  1460     os         1      MOL     O1460      1460    0.00000000   15.999405
  1461     os         1      MOL     O1461      1461    0.00000000   15.999405
  1462     os         1      MOL     O1462      1462    0.00000000   15.999405
  1463     os         1      MOL     O1463      1463    0.00000000   15.999405
  1464     os         1      MOL     O1464      1464    0.00000000   15.999405
  1465     os         1      MOL     O1465      1465    0.00000000   15.999405
  1466     os         1      MOL     O1466      1466    0.00000000   15.999405
  1467     UF_Si      1      MOL     Si1467     1467    0.00000000   28.085499
  1468     UF_Si      1      MOL     Si1468     1468    0.00000000   28.085499
  1469     UF_Si      1      MOL     Si1469     1469    0.00000000   28.085499
  1470     UF_Si      1      MOL     Si1470     1470    0.00000000   28.085499
  1471     UF_Si      1      MOL     Si1471     1471    0.00000000   28.085499
  1472     UF_Si      1      MOL     Si1472     1472    0.00000000   28.085499
  1473     UF_Si      1      MOL     Si1473     1473    0.00000000   28.085499
  1474     UF_Si      1      MOL     Si1474     1474    0.00000000   28.085499
  1475     UF_Si      1      MOL     Si1475     1475    0.00000000   28.085499
  1476     UF_Si      1      MOL     Si1476     1476    0.00000000   28.085499
  1477     UF_Si      1      MOL     Si1477     1477    0.00000000   28.085499
  1478     UF_Si      1      MOL     Si1478     1478    0.00000000   28.085499
  1479     os         1      MOL     O1479      1479    0.00000000   15.999405
  1480     os         1      MOL     O1480      1480    0.00000000   15.999405
  1481     os         1      MOL     O1481      1481    0.00000000   15.999405
  1482     os         1      MOL     O1482      1482    0.00000000   15.999405
  1483     os         1      MOL     O1483      1483    0.00000000   15.999405
  1484     os         1      MOL     O1484      1484    0.00000000   15.999405
  1485     os         1      MOL     O1485      1485    0.00000000   15.999405
  1486     os         1      MOL     O1486      1486    0.00000000   15.999405
  1487     os         1      MOL     O1487      1487    0.00000000   15.999405
  1488     os         1      MOL     O1488      1488    0.00000000   15.999405
  1489     os         1      MOL     O1489      1489    0.00000000   15.999405
  1490     os         1      MOL     O1490      1490    0.00000000   15.999405
  1491     os         1      MOL     O1491      1491    0.00000000   15.999405
  1492     os         1      MOL     O1492      1492    0.00000000   15.999405
  1493     os         1      MOL     O1493      1493    0.00000000   15.999405
  1494     o          1      MOL     O1494      1494    0.00000000   15.999405
  1495     os         1      MOL     O1495      1495    0.00000000   15.999405
  1496     os         1      MOL     O1496      1496    0.00000000   15.999405
  1497     os         1      MOL     O1497      1497    0.00000000   15.999405
  1498     os         1      MOL     O1498      1498    0.00000000   15.999405
  1499     os         1      MOL     O1499      1499    0.00000000   15.999405
  1500     os         1      MOL     O1500      1500    0.00000000   15.999405
  1501     os         1      MOL     O1501      1501    0.00000000   15.999405
  1502     os         1      MOL     O1502      1502    0.00000000   15.999405
  1503     os         1      MOL     O1503      1503    0.00000000   15.999405
  1504     os         1      MOL     O1504      1504    0.00000000   15.999405
  1505     UF_Si      1      MOL     Si1505     1505    0.00000000   28.085499
  1506     UF_Si      1      MOL     Si1506     1506    0.00000000   28.085499
  1507     UF_Si      1      MOL     Si1507     1507    0.00000000   28.085499
  1508     UF_Si      1      MOL     Si1508     1508    0.00000000   28.085499
  1509     UF_Si      1      MOL     Si1509     1509    0.00000000   28.085499
  1510     UF_Si      1      MOL     Si1510     1510    0.00000000   28.085499
  1511     UF_Si      1      MOL     Si1511     1511    0.00000000   28.085499
  1512     UF_Si      1      MOL     Si1512     1512    0.00000000   28.085499
  1513     UF_Si      1      MOL     Si1513     1513    0.00000000   28.085499
  1514     UF_Si      1      MOL     Si1514     1514    0.00000000   28.085499
  1515     UF_Si      1      MOL     Si1515     1515    0.00000000   28.085499
  1516     UF_Si      1      MOL     Si1516     1516    0.00000000   28.085499
  1517     o          1      MOL     O1517      1517    0.00000000   15.999405
  1518     os         1      MOL     O1518      1518    0.00000000   15.999405
  1519     os         1      MOL     O1519      1519    0.00000000   15.999405
  1520     os         1      MOL     O1520      1520    0.00000000   15.999405
  1521     os         1      MOL     O1521      1521    0.00000000   15.999405
  1522     os         1      MOL     O1522      1522    0.00000000   15.999405
  1523     os         1      MOL     O1523      1523    0.00000000   15.999405
  1524     os         1      MOL     O1524      1524    0.00000000   15.999405
  1525     os         1      MOL     O1525      1525    0.00000000   15.999405
  1526     os         1      MOL     O1526      1526    0.00000000   15.999405
  1527     os         1      MOL     O1527      1527    0.00000000   15.999405
  1528     os         1      MOL     O1528      1528    0.00000000   15.999405
  1529     os         1      MOL     O1529      1529    0.00000000   15.999405
  1530     os         1      MOL     O1530      1530    0.00000000   15.999405
  1531     os         1      MOL     O1531      1531    0.00000000   15.999405
  1532     os         1      MOL     O1532      1532    0.00000000   15.999405
  1533     os         1      MOL     O1533      1533    0.00000000   15.999405
  1534     os         1      MOL     O1534      1534    0.00000000   15.999405
  1535     os         1      MOL     O1535      1535    0.00000000   15.999405
  1536     os         1      MOL     O1536      1536    0.00000000   15.999405
  1537     os         1      MOL     O1537      1537    0.00000000   15.999405
  1538     os         1      MOL     O1538      1538    0.00000000   15.999405
  1539     os         1      MOL     O1539      1539    0.00000000   15.999405
  1540     os         1      MOL     O1540      1540    0.00000000   15.999405
  1541     os         1      MOL     O1541      1541    0.00000000   15.999405
  1542     os         1      MOL     O1542      1542    0.00000000   15.999405
  1543     UF_Si      1      MOL     Si1543     1543    0.00000000   28.085499
  1544     UF_Si      1      MOL     Si1544     1544    0.00000000   28.085499
  1545     UF_Si      1      MOL     Si1545     1545    0.00000000   28.085499
  1546     UF_Si      1      MOL     Si1546     1546    0.00000000   28.085499
  1547     UF_Si      1      MOL     Si1547     1547    0.00000000   28.085499
  1548     UF_Si      1      MOL     Si1548     1548    0.00000000   28.085499
  1549     UF_Si      1      MOL     Si1549     1549    0.00000000   28.085499
  1550     UF_Si      1      MOL     Si1550     1550    0.00000000   28.085499
  1551     UF_Si      1      MOL     Si1551     1551    0.00000000   28.085499
  1552     UF_Si      1      MOL     Si1552     1552    0.00000000   28.085499
  1553     UF_Si      1      MOL     Si1553     1553    0.00000000   28.085499
  1554     UF_Si      1      MOL     Si1554     1554    0.00000000   28.085499
  1555     os         1      MOL     O1555      1555    0.00000000   15.999405
  1556     os         1      MOL     O1556      1556    0.00000000   15.999405
  1557     os         1      MOL     O1557      1557    0.00000000   15.999405
  1558     os         1      MOL     O1558      1558    0.00000000   15.999405
  1559     os         1      MOL     O1559      1559    0.00000000   15.999405
  1560     os         1      MOL     O1560      1560    0.00000000   15.999405
  1561     os         1      MOL     O1561      1561    0.00000000   15.999405
  1562     os         1      MOL     O1562      1562    0.00000000   15.999405
  1563     os         1      MOL     O1563      1563    0.00000000   15.999405
  1564     os         1      MOL     O1564      1564    0.00000000   15.999405
  1565     os         1      MOL     O1565      1565    0.00000000   15.999405
  1566     os         1      MOL     O1566      1566    0.00000000   15.999405
  1567     os         1      MOL     O1567      1567    0.00000000   15.999405
  1568     os         1      MOL     O1568      1568    0.00000000   15.999405
  1569     os         1      MOL     O1569      1569    0.00000000   15.999405
  1570     os         1      MOL     O1570      1570    0.00000000   15.999405
  1571     os         1      MOL     O1571      1571    0.00000000   15.999405
  1572     os         1      MOL     O1572      1572    0.00000000   15.999405
  1573     os         1      MOL     O1573      1573    0.00000000   15.999405
  1574     os         1      MOL     O1574      1574    0.00000000   15.999405
  1575     os         1      MOL     O1575      1575    0.00000000   15.999405
  1576     os         1      MOL     O1576      1576    0.00000000   15.999405
  1577     os         1      MOL     O1577      1577    0.00000000   15.999405
  1578     os         1      MOL     O1578      1578    0.00000000   15.999405
  1579     os         1      MOL     O1579      1579    0.00000000   15.999405
  1580     os         1      MOL     O1580      1580    0.00000000   15.999405
  1581     UF_Si      1      MOL     Si1581     1581    0.00000000   28.085499
  1582     UF_Si      1      MOL     Si1582     1582    0.00000000   28.085499
  1583     UF_Si      1      MOL     Si1583     1583    0.00000000   28.085499
  1584     UF_Si      1      MOL     Si1584     1584    0.00000000   28.085499
  1585     UF_Si      1      MOL     Si1585     1585    0.00000000   28.085499
  1586     UF_Si      1      MOL     Si1586     1586    0.00000000   28.085499
  1587     UF_Si      1      MOL     Si1587     1587    0.00000000   28.085499
  1588     UF_Si      1      MOL     Si1588     1588    0.00000000   28.085499
  1589     UF_Si      1      MOL     Si1589     1589    0.00000000   28.085499
  1590     UF_Si      1      MOL     Si1590     1590    0.00000000   28.085499
  1591     UF_Si      1      MOL     Si1591     1591    0.00000000   28.085499
  1592     UF_Si      1      MOL     Si1592     1592    0.00000000   28.085499
  1593     os         1      MOL     O1593      1593    0.00000000   15.999405
  1594     os         1      MOL     O1594      1594    0.00000000   15.999405
  1595     os         1      MOL     O1595      1595    0.00000000   15.999405
  1596     os         1      MOL     O1596      1596    0.00000000   15.999405
  1597     os         1      MOL     O1597      1597    0.00000000   15.999405
  1598     os         1      MOL     O1598      1598    0.00000000   15.999405
  1599     os         1      MOL     O1599      1599    0.00000000   15.999405
  1600     os         1      MOL     O1600      1600    0.00000000   15.999405
  1601     os         1      MOL     O1601      1601    0.00000000   15.999405
  1602     os         1      MOL     O1602      1602    0.00000000   15.999405
  1603     os         1      MOL     O1603      1603    0.00000000   15.999405
  1604     os         1      MOL     O1604      1604    0.00000000   15.999405
  1605     os         1      MOL     O1605      1605    0.00000000   15.999405
  1606     os         1      MOL     O1606      1606    0.00000000   15.999405
  1607     os         1      MOL     O1607      1607    0.00000000   15.999405
  1608     os         1      MOL     O1608      1608    0.00000000   15.999405
  1609     os         1      MOL     O1609      1609    0.00000000   15.999405
  1610     os         1      MOL     O1610      1610    0.00000000   15.999405
  1611     os         1      MOL     O1611      1611    0.00000000   15.999405
  1612     os         1      MOL     O1612      1612    0.00000000   15.999405
  1613     os         1      MOL     O1613      1613    0.00000000   15.999405
  1614     os         1      MOL     O1614      1614    0.00000000   15.999405
  1615     UF_Si      1      MOL     Si1615     1615    0.00000000   28.085499
  1616     UF_Si      1      MOL     Si1616     1616    0.00000000   28.085499
  1617     UF_Si      1      MOL     Si1617     1617    0.00000000   28.085499
  1618     UF_Si      1      MOL     Si1618     1618    0.00000000   28.085499
  1619     UF_Si      1      MOL     Si1619     1619    0.00000000   28.085499
  1620     UF_Si      1      MOL     Si1620     1620    0.00000000   28.085499
  1621     UF_Si      1      MOL     Si1621     1621    0.00000000   28.085499
  1622     UF_Si      1      MOL     Si1622     1622    0.00000000   28.085499
  1623     UF_Si      1      MOL     Si1623     1623    0.00000000   28.085499
  1624     UF_Si      1      MOL     Si1624     1624    0.00000000   28.085499
  1625     UF_Si      1      MOL     Si1625     1625    0.00000000   28.085499
  1626     UF_Si      1      MOL     Si1626     1626    0.00000000   28.085499
  1627     o          1      MOL     O1627      1627    0.00000000   15.999405
  1628     os         1      MOL     O1628      1628    0.00000000   15.999405
  1629     os         1      MOL     O1629      1629    0.00000000   15.999405
  1630     os         1      MOL     O1630      1630    0.00000000   15.999405
  1631     os         1      MOL     O1631      1631    0.00000000   15.999405
  1632     os         1      MOL     O1632      1632    0.00000000   15.999405
  1633     os         1      MOL     O1633      1633    0.00000000   15.999405
  1634     os         1      MOL     O1634      1634    0.00000000   15.999405
  1635     os         1      MOL     O1635      1635    0.00000000   15.999405
  1636     os         1      MOL     O1636      1636    0.00000000   15.999405
  1637     os         1      MOL     O1637      1637    0.00000000   15.999405
  1638     os         1      MOL     O1638      1638    0.00000000   15.999405
  1639     os         1      MOL     O1639      1639    0.00000000   15.999405
  1640     os         1      MOL     O1640      1640    0.00000000   15.999405
  1641     os         1      MOL     O1641      1641    0.00000000   15.999405
  1642     os         1      MOL     O1642      1642    0.00000000   15.999405
  1643     os         1      MOL     O1643      1643    0.00000000   15.999405
  1644     os         1      MOL     O1644      1644    0.00000000   15.999405
  1645     os         1      MOL     O1645      1645    0.00000000   15.999405
  1646     os         1      MOL     O1646      1646    0.00000000   15.999405
  1647     os         1      MOL     O1647      1647    0.00000000   15.999405
  1648     os         1      MOL     O1648      1648    0.00000000   15.999405
  1649     UF_Si      1      MOL     Si1649     1649    0.00000000   28.085499
  1650     UF_Si      1      MOL     Si1650     1650    0.00000000   28.085499
  1651     UF_Si      1      MOL     Si1651     1651    0.00000000   28.085499
  1652     UF_Si      1      MOL     Si1652     1652    0.00000000   28.085499
  1653     UF_Si      1      MOL     Si1653     1653    0.00000000   28.085499
  1654     UF_Si      1      MOL     Si1654     1654    0.00000000   28.085499
  1655     UF_Si      1      MOL     Si1655     1655    0.00000000   28.085499
  1656     UF_Si      1      MOL     Si1656     1656    0.00000000   28.085499
  1657     UF_Si      1      MOL     Si1657     1657    0.00000000   28.085499
  1658     UF_Si      1      MOL     Si1658     1658    0.00000000   28.085499
  1659     UF_Si      1      MOL     Si1659     1659    0.00000000   28.085499
  1660     UF_Si      1      MOL     Si1660     1660    0.00000000   28.085499
  1661     os         1      MOL     O1661      1661    0.00000000   15.999405
  1662     os         1      MOL     O1662      1662    0.00000000   15.999405
  1663     os         1      MOL     O1663      1663    0.00000000   15.999405
  1664     os         1      MOL     O1664      1664    0.00000000   15.999405
  1665     os         1      MOL     O1665      1665    0.00000000   15.999405
  1666     os         1      MOL     O1666      1666    0.00000000   15.999405
  1667     os         1      MOL     O1667      1667    0.00000000   15.999405
  1668     os         1      MOL     O1668      1668    0.00000000   15.999405
  1669     os         1      MOL     O1669      1669    0.00000000   15.999405
  1670     os         1      MOL     O1670      1670    0.00000000   15.999405
  1671     os         1      MOL     O1671      1671    0.00000000   15.999405
  1672     os         1      MOL     O1672      1672    0.00000000   15.999405
  1673     os         1      MOL     O1673      1673    0.00000000   15.999405
  1674     os         1      MOL     O1674      1674    0.00000000   15.999405
  1675     os         1      MOL     O1675      1675    0.00000000   15.999405
  1676     o          1      MOL     O1676      1676    0.00000000   15.999405
  1677     os         1      MOL     O1677      1677    0.00000000   15.999405
  1678     os         1      MOL     O1678      1678    0.00000000   15.999405
  1679     os         1      MOL     O1679      1679    0.00000000   15.999405
  1680     os         1      MOL     O1680      1680    0.00000000   15.999405
  1681     os         1      MOL     O1681      1681    0.00000000   15.999405
  1682     os         1      MOL     O1682      1682    0.00000000   15.999405
  1683     UF_Si      1      MOL     Si1683     1683    0.00000000   28.085499
  1684     UF_Si      1      MOL     Si1684     1684    0.00000000   28.085499
  1685     UF_Si      1      MOL     Si1685     1685    0.00000000   28.085499
  1686     UF_Si      1      MOL     Si1686     1686    0.00000000   28.085499
  1687     UF_Si      1      MOL     Si1687     1687    0.00000000   28.085499
  1688     UF_Si      1      MOL     Si1688     1688    0.00000000   28.085499
  1689     UF_Si      1      MOL     Si1689     1689    0.00000000   28.085499
  1690     UF_Si      1      MOL     Si1690     1690    0.00000000   28.085499
  1691     UF_Si      1      MOL     Si1691     1691    0.00000000   28.085499
  1692     UF_Si      1      MOL     Si1692     1692    0.00000000   28.085499
  1693     UF_Si      1      MOL     Si1693     1693    0.00000000   28.085499
  1694     UF_Si      1      MOL     Si1694     1694    0.00000000   28.085499
  1695     os         1      MOL     O1695      1695    0.00000000   15.999405
  1696     os         1      MOL     O1696      1696    0.00000000   15.999405
  1697     os         1      MOL     O1697      1697    0.00000000   15.999405
  1698     os         1      MOL     O1698      1698    0.00000000   15.999405
  1699     os         1      MOL     O1699      1699    0.00000000   15.999405
  1700     os         1      MOL     O1700      1700    0.00000000   15.999405
  1701     os         1      MOL     O1701      1701    0.00000000   15.999405
  1702     os         1      MOL     O1702      1702    0.00000000   15.999405
  1703     os         1      MOL     O1703      1703    0.00000000   15.999405
  1704     os         1      MOL     O1704      1704    0.00000000   15.999405
  1705     os         1      MOL     O1705      1705    0.00000000   15.999405
  1706     os         1      MOL     O1706      1706    0.00000000   15.999405
  1707     os         1      MOL     O1707      1707    0.00000000   15.999405
  1708     os         1      MOL     O1708      1708    0.00000000   15.999405
  1709     os         1      MOL     O1709      1709    0.00000000   15.999405
  1710     os         1      MOL     O1710      1710    0.00000000   15.999405
  1711     os         1      MOL     O1711      1711    0.00000000   15.999405
  1712     os         1      MOL     O1712      1712    0.00000000   15.999405
  1713     os         1      MOL     O1713      1713    0.00000000   15.999405
  1714     os         1      MOL     O1714      1714    0.00000000   15.999405
  1715     os         1      MOL     O1715      1715    0.00000000   15.999405
  1716     os         1      MOL     O1716      1716    0.00000000   15.999405
  1717     UF_Si      1      MOL     Si1717     1717    0.00000000   28.085499
  1718     UF_Si      1      MOL     Si1718     1718    0.00000000   28.085499
  1719     UF_Si      1      MOL     Si1719     1719    0.00000000   28.085499
  1720     UF_Si      1      MOL     Si1720     1720    0.00000000   28.085499
  1721     UF_Si      1      MOL     Si1721     1721    0.00000000   28.085499
  1722     UF_Si      1      MOL     Si1722     1722    0.00000000   28.085499
  1723     UF_Si      1      MOL     Si1723     1723    0.00000000   28.085499
  1724     UF_Si      1      MOL     Si1724     1724    0.00000000   28.085499
  1725     UF_Si      1      MOL     Si1725     1725    0.00000000   28.085499
  1726     UF_Si      1      MOL     Si1726     1726    0.00000000   28.085499
  1727     UF_Si      1      MOL     Si1727     1727    0.00000000   28.085499
  1728     UF_Si      1      MOL     Si1728     1728    0.00000000   28.085499
  1729     os         1      MOL     O1729      1729    0.00000000   15.999405
  1730     os         1      MOL     O1730      1730    0.00000000   15.999405
  1731     os         1      MOL     O1731      1731    0.00000000   15.999405
  1732     os         1      MOL     O1732      1732    0.00000000   15.999405
  1733     os         1      MOL     O1733      1733    0.00000000   15.999405
  1734     os         1      MOL     O1734      1734    0.00000000   15.999405
  1735     os         1      MOL     O1735      1735    0.00000000   15.999405
  1736     os         1      MOL     O1736      1736    0.00000000   15.999405
  1737     os         1      MOL     O1737      1737    0.00000000   15.999405
  1738     os         1      MOL     O1738      1738    0.00000000   15.999405
  1739     os         1      MOL     O1739      1739    0.00000000   15.999405
  1740     os         1      MOL     O1740      1740    0.00000000   15.999405
  1741     os         1      MOL     O1741      1741    0.00000000   15.999405
  1742     os         1      MOL     O1742      1742    0.00000000   15.999405
  1743     os         1      MOL     O1743      1743    0.00000000   15.999405
  1744     os         1      MOL     O1744      1744    0.00000000   15.999405
  1745     os         1      MOL     O1745      1745    0.00000000   15.999405
  1746     os         1      MOL     O1746      1746    0.00000000   15.999405
  1747     os         1      MOL     O1747      1747    0.00000000   15.999405
  1748     os         1      MOL     O1748      1748    0.00000000   15.999405
  1749     os         1      MOL     O1749      1749    0.00000000   15.999405
  1750     os         1      MOL     O1750      1750    0.00000000   15.999405
  1751     os         1      MOL     O1751      1751    0.00000000   15.999405
  1752     os         1      MOL     O1752      1752    0.00000000   15.999405
  1753     os         1      MOL     O1753      1753    0.00000000   15.999405
  1754     os         1      MOL     O1754      1754    0.00000000   15.999405
  1755     UF_Si      1      MOL     Si1755     1755    0.00000000   28.085499
  1756     UF_Si      1      MOL     Si1756     1756    0.00000000   28.085499
  1757     UF_Si      1      MOL     Si1757     1757    0.00000000   28.085499
  1758     UF_Si      1      MOL     Si1758     1758    0.00000000   28.085499
  1759     UF_Si      1      MOL     Si1759     1759    0.00000000   28.085499
  1760     UF_Si      1      MOL     Si1760     1760    0.00000000   28.085499
  1761     UF_Si      1      MOL     Si1761     1761    0.00000000   28.085499
  1762     UF_Si      1      MOL     Si1762     1762    0.00000000   28.085499
  1763     UF_Si      1      MOL     Si1763     1763    0.00000000   28.085499
  1764     UF_Si      1      MOL     Si1764     1764    0.00000000   28.085499
  1765     UF_Si      1      MOL     Si1765     1765    0.00000000   28.085499
  1766     UF_Si      1      MOL     Si1766     1766    0.00000000   28.085499
  1767     os         1      MOL     O1767      1767    0.00000000   15.999405
  1768     os         1      MOL     O1768      1768    0.00000000   15.999405
  1769     os         1      MOL     O1769      1769    0.00000000   15.999405
  1770     os         1      MOL     O1770      1770    0.00000000   15.999405
  1771     os         1      MOL     O1771      1771    0.00000000   15.999405
  1772     os         1      MOL     O1772      1772    0.00000000   15.999405
  1773     os         1      MOL     O1773      1773    0.00000000   15.999405
  1774     os         1      MOL     O1774      1774    0.00000000   15.999405
  1775     os         1      MOL     O1775      1775    0.00000000   15.999405
  1776     os         1      MOL     O1776      1776    0.00000000   15.999405
  1777     os         1      MOL     O1777      1777    0.00000000   15.999405
  1778     os         1      MOL     O1778      1778    0.00000000   15.999405
  1779     os         1      MOL     O1779      1779    0.00000000   15.999405
  1780     os         1      MOL     O1780      1780    0.00000000   15.999405
  1781     os         1      MOL     O1781      1781    0.00000000   15.999405
  1782     o          1      MOL     O1782      1782    0.00000000   15.999405
  1783     os         1      MOL     O1783      1783    0.00000000   15.999405
  1784     os         1      MOL     O1784      1784    0.00000000   15.999405
  1785     os         1      MOL     O1785      1785    0.00000000   15.999405
  1786     os         1      MOL     O1786      1786    0.00000000   15.999405
  1787     os         1      MOL     O1787      1787    0.00000000   15.999405
  1788     os         1      MOL     O1788      1788    0.00000000   15.999405
  1789     os         1      MOL     O1789      1789    0.00000000   15.999405
  1790     os         1      MOL     O1790      1790    0.00000000   15.999405
  1791     os         1      MOL     O1791      1791    0.00000000   15.999405
  1792     os         1      MOL     O1792      1792    0.00000000   15.999405
  1793     UF_Si      1      MOL     Si1793     1793    0.00000000   28.085499
  1794     UF_Si      1      MOL     Si1794     1794    0.00000000   28.085499
  1795     UF_Si      1      MOL     Si1795     1795    0.00000000   28.085499
  1796     UF_Si      1      MOL     Si1796     1796    0.00000000   28.085499
  1797     UF_Si      1      MOL     Si1797     1797    0.00000000   28.085499
  1798     UF_Si      1      MOL     Si1798     1798    0.00000000   28.085499
  1799     UF_Si      1      MOL     Si1799     1799    0.00000000   28.085499
  1800     UF_Si      1      MOL     Si1800     1800    0.00000000   28.085499
  1801     UF_Si      1      MOL     Si1801     1801    0.00000000   28.085499
  1802     UF_Si      1      MOL     Si1802     1802    0.00000000   28.085499
  1803     UF_Si      1      MOL     Si1803     1803    0.00000000   28.085499
  1804     UF_Si      1      MOL     Si1804     1804    0.00000000   28.085499
  1805     o          1      MOL     O1805      1805    0.00000000   15.999405
  1806     os         1      MOL     O1806      1806    0.00000000   15.999405
  1807     os         1      MOL     O1807      1807    0.00000000   15.999405
  1808     os         1      MOL     O1808      1808    0.00000000   15.999405
  1809     os         1      MOL     O1809      1809    0.00000000   15.999405
  1810     os         1      MOL     O1810      1810    0.00000000   15.999405
  1811     os         1      MOL     O1811      1811    0.00000000   15.999405
  1812     os         1      MOL     O1812      1812    0.00000000   15.999405
  1813     os         1      MOL     O1813      1813    0.00000000   15.999405
  1814     os         1      MOL     O1814      1814    0.00000000   15.999405
  1815     os         1      MOL     O1815      1815    0.00000000   15.999405
  1816     os         1      MOL     O1816      1816    0.00000000   15.999405
  1817     os         1      MOL     O1817      1817    0.00000000   15.999405
  1818     os         1      MOL     O1818      1818    0.00000000   15.999405
  1819     os         1      MOL     O1819      1819    0.00000000   15.999405
  1820     os         1      MOL     O1820      1820    0.00000000   15.999405
  1821     os         1      MOL     O1821      1821    0.00000000   15.999405
  1822     os         1      MOL     O1822      1822    0.00000000   15.999405
  1823     os         1      MOL     O1823      1823    0.00000000   15.999405
  1824     os         1      MOL     O1824      1824    0.00000000   15.999405
  1825     os         1      MOL     O1825      1825    0.00000000   15.999405
  1826     os         1      MOL     O1826      1826    0.00000000   15.999405
  1827     os         1      MOL     O1827      1827    0.00000000   15.999405
  1828     os         1      MOL     O1828      1828    0.00000000   15.999405
  1829     os         1      MOL     O1829      1829    0.00000000   15.999405
  1830     os         1      MOL     O1830      1830    0.00000000   15.999405
  1831     UF_Si      1      MOL     Si1831     1831    0.00000000   28.085499
  1832     UF_Si      1      MOL     Si1832     1832    0.00000000   28.085499
  1833     UF_Si      1      MOL     Si1833     1833    0.00000000   28.085499
  1834     UF_Si      1      MOL     Si1834     1834    0.00000000   28.085499
  1835     UF_Si      1      MOL     Si1835     1835    0.00000000   28.085499
  1836     UF_Si      1      MOL     Si1836     1836    0.00000000   28.085499
  1837     UF_Si      1      MOL     Si1837     1837    0.00000000   28.085499
  1838     UF_Si      1      MOL     Si1838     1838    0.00000000   28.085499
  1839     UF_Si      1      MOL     Si1839     1839    0.00000000   28.085499
  1840     UF_Si      1      MOL     Si1840     1840    0.00000000   28.085499
  1841     UF_Si      1      MOL     Si1841     1841    0.00000000   28.085499
  1842     UF_Si      1      MOL     Si1842     1842    0.00000000   28.085499
  1843     os         1      MOL     O1843      1843    0.00000000   15.999405
  1844     os         1      MOL     O1844      1844    0.00000000   15.999405
  1845     os         1      MOL     O1845      1845    0.00000000   15.999405
  1846     os         1      MOL     O1846      1846    0.00000000   15.999405
  1847     os         1      MOL     O1847      1847    0.00000000   15.999405
  1848     os         1      MOL     O1848      1848    0.00000000   15.999405
  1849     os         1      MOL     O1849      1849    0.00000000   15.999405
  1850     os         1      MOL     O1850      1850    0.00000000   15.999405
  1851     os         1      MOL     O1851      1851    0.00000000   15.999405
  1852     os         1      MOL     O1852      1852    0.00000000   15.999405
  1853     os         1      MOL     O1853      1853    0.00000000   15.999405
  1854     os         1      MOL     O1854      1854    0.00000000   15.999405
  1855     os         1      MOL     O1855      1855    0.00000000   15.999405
  1856     os         1      MOL     O1856      1856    0.00000000   15.999405
  1857     os         1      MOL     O1857      1857    0.00000000   15.999405
  1858     os         1      MOL     O1858      1858    0.00000000   15.999405
  1859     os         1      MOL     O1859      1859    0.00000000   15.999405
  1860     os         1      MOL     O1860      1860    0.00000000   15.999405
  1861     os         1      MOL     O1861      1861    0.00000000   15.999405
  1862     os         1      MOL     O1862      1862    0.00000000   15.999405
  1863     os         1      MOL     O1863      1863    0.00000000   15.999405
  1864     os         1      MOL     O1864      1864    0.00000000   15.999405
  1865     os         1      MOL     O1865      1865    0.00000000   15.999405
  1866     os         1      MOL     O1866      1866    0.00000000   15.999405
  1867     os         1      MOL     O1867      1867    0.00000000   15.999405
  1868     os         1      MOL     O1868      1868    0.00000000   15.999405
  1869     UF_Si      1      MOL     Si1869     1869    0.00000000   28.085499
  1870     UF_Si      1      MOL     Si1870     1870    0.00000000   28.085499
  1871     UF_Si      1      MOL     Si1871     1871    0.00000000   28.085499
  1872     UF_Si      1      MOL     Si1872     1872    0.00000000   28.085499
  1873     UF_Si      1      MOL     Si1873     1873    0.00000000   28.085499
  1874     UF_Si      1      MOL     Si1874     1874    0.00000000   28.085499
  1875     UF_Si      1      MOL     Si1875     1875    0.00000000   28.085499
  1876     UF_Si      1      MOL     Si1876     1876    0.00000000   28.085499
  1877     UF_Si      1      MOL     Si1877     1877    0.00000000   28.085499
  1878     UF_Si      1      MOL     Si1878     1878    0.00000000   28.085499
  1879     UF_Si      1      MOL     Si1879     1879    0.00000000   28.085499
  1880     UF_Si      1      MOL     Si1880     1880    0.00000000   28.085499
  1881     os         1      MOL     O1881      1881    0.00000000   15.999405
  1882     os         1      MOL     O1882      1882    0.00000000   15.999405
  1883     os         1      MOL     O1883      1883    0.00000000   15.999405
  1884     os         1      MOL     O1884      1884    0.00000000   15.999405
  1885     os         1      MOL     O1885      1885    0.00000000   15.999405
  1886     os         1      MOL     O1886      1886    0.00000000   15.999405
  1887     os         1      MOL     O1887      1887    0.00000000   15.999405
  1888     os         1      MOL     O1888      1888    0.00000000   15.999405
  1889     os         1      MOL     O1889      1889    0.00000000   15.999405
  1890     os         1      MOL     O1890      1890    0.00000000   15.999405
  1891     os         1      MOL     O1891      1891    0.00000000   15.999405
  1892     os         1      MOL     O1892      1892    0.00000000   15.999405
  1893     os         1      MOL     O1893      1893    0.00000000   15.999405
  1894     os         1      MOL     O1894      1894    0.00000000   15.999405
  1895     os         1      MOL     O1895      1895    0.00000000   15.999405
  1896     os         1      MOL     O1896      1896    0.00000000   15.999405
  1897     os         1      MOL     O1897      1897    0.00000000   15.999405
  1898     os         1      MOL     O1898      1898    0.00000000   15.999405
  1899     os         1      MOL     O1899      1899    0.00000000   15.999405
  1900     os         1      MOL     O1900      1900    0.00000000   15.999405
  1901     os         1      MOL     O1901      1901    0.00000000   15.999405
  1902     os         1      MOL     O1902      1902    0.00000000   15.999405
  1903     UF_Si      1      MOL     Si1903     1903    0.00000000   28.085499
  1904     UF_Si      1      MOL     Si1904     1904    0.00000000   28.085499
  1905     UF_Si      1      MOL     Si1905     1905    0.00000000   28.085499
  1906     UF_Si      1      MOL     Si1906     1906    0.00000000   28.085499
  1907     UF_Si      1      MOL     Si1907     1907    0.00000000   28.085499
  1908     UF_Si      1      MOL     Si1908     1908    0.00000000   28.085499
  1909     UF_Si      1      MOL     Si1909     1909    0.00000000   28.085499
  1910     UF_Si      1      MOL     Si1910     1910    0.00000000   28.085499
  1911     UF_Si      1      MOL     Si1911     1911    0.00000000   28.085499
  1912     UF_Si      1      MOL     Si1912     1912    0.00000000   28.085499
  1913     UF_Si      1      MOL     Si1913     1913    0.00000000   28.085499
  1914     UF_Si      1      MOL     Si1914     1914    0.00000000   28.085499
  1915     o          1      MOL     O1915      1915    0.00000000   15.999405
  1916     os         1      MOL     O1916      1916    0.00000000   15.999405
  1917     os         1      MOL     O1917      1917    0.00000000   15.999405
  1918     os         1      MOL     O1918      1918    0.00000000   15.999405
  1919     os         1      MOL     O1919      1919    0.00000000   15.999405
  1920     os         1      MOL     O1920      1920    0.00000000   15.999405
  1921     os         1      MOL     O1921      1921    0.00000000   15.999405
  1922     os         1      MOL     O1922      1922    0.00000000   15.999405
  1923     os         1      MOL     O1923      1923    0.00000000   15.999405
  1924     os         1      MOL     O1924      1924    0.00000000   15.999405
  1925     os         1      MOL     O1925      1925    0.00000000   15.999405
  1926     os         1      MOL     O1926      1926    0.00000000   15.999405
  1927     os         1      MOL     O1927      1927    0.00000000   15.999405
  1928     os         1      MOL     O1928      1928    0.00000000   15.999405
  1929     os         1      MOL     O1929      1929    0.00000000   15.999405
  1930     os         1      MOL     O1930      1930    0.00000000   15.999405
  1931     os         1      MOL     O1931      1931    0.00000000   15.999405
  1932     os         1      MOL     O1932      1932    0.00000000   15.999405
  1933     os         1      MOL     O1933      1933    0.00000000   15.999405
  1934     os         1      MOL     O1934      1934    0.00000000   15.999405
  1935     os         1      MOL     O1935      1935    0.00000000   15.999405
  1936     os         1      MOL     O1936      1936    0.00000000   15.999405
  1937     UF_Si      1      MOL     Si1937     1937    0.00000000   28.085499
  1938     UF_Si      1      MOL     Si1938     1938    0.00000000   28.085499
  1939     UF_Si      1      MOL     Si1939     1939    0.00000000   28.085499
  1940     UF_Si      1      MOL     Si1940     1940    0.00000000   28.085499
  1941     UF_Si      1      MOL     Si1941     1941    0.00000000   28.085499
  1942     UF_Si      1      MOL     Si1942     1942    0.00000000   28.085499
  1943     UF_Si      1      MOL     Si1943     1943    0.00000000   28.085499
  1944     UF_Si      1      MOL     Si1944     1944    0.00000000   28.085499
  1945     UF_Si      1      MOL     Si1945     1945    0.00000000   28.085499
  1946     UF_Si      1      MOL     Si1946     1946    0.00000000   28.085499
  1947     UF_Si      1      MOL     Si1947     1947    0.00000000   28.085499
  1948     UF_Si      1      MOL     Si1948     1948    0.00000000   28.085499
  1949     os         1      MOL     O1949      1949    0.00000000   15.999405
  1950     os         1      MOL     O1950      1950    0.00000000   15.999405
  1951     os         1      MOL     O1951      1951    0.00000000   15.999405
  1952     os         1      MOL     O1952      1952    0.00000000   15.999405
  1953     os         1      MOL     O1953      1953    0.00000000   15.999405
  1954     os         1      MOL     O1954      1954    0.00000000   15.999405
  1955     os         1      MOL     O1955      1955    0.00000000   15.999405
  1956     os         1      MOL     O1956      1956    0.00000000   15.999405
  1957     os         1      MOL     O1957      1957    0.00000000   15.999405
  1958     os         1      MOL     O1958      1958    0.00000000   15.999405
  1959     os         1      MOL     O1959      1959    0.00000000   15.999405
  1960     os         1      MOL     O1960      1960    0.00000000   15.999405
  1961     os         1      MOL     O1961      1961    0.00000000   15.999405
  1962     os         1      MOL     O1962      1962    0.00000000   15.999405
  1963     os         1      MOL     O1963      1963    0.00000000   15.999405
  1964     o          1      MOL     O1964      1964    0.00000000   15.999405
  1965     os         1      MOL     O1965      1965    0.00000000   15.999405
  1966     os         1      MOL     O1966      1966    0.00000000   15.999405
  1967     os         1      MOL     O1967      1967    0.00000000   15.999405
  1968     os         1      MOL     O1968      1968    0.00000000   15.999405
  1969     os         1      MOL     O1969      1969    0.00000000   15.999405
  1970     os         1      MOL     O1970      1970    0.00000000   15.999405
  1971     UF_Si      1      MOL     Si1971     1971    0.00000000   28.085499
  1972     UF_Si      1      MOL     Si1972     1972    0.00000000   28.085499
  1973     UF_Si      1      MOL     Si1973     1973    0.00000000   28.085499
  1974     UF_Si      1      MOL     Si1974     1974    0.00000000   28.085499
  1975     UF_Si      1      MOL     Si1975     1975    0.00000000   28.085499
  1976     UF_Si      1      MOL     Si1976     1976    0.00000000   28.085499
  1977     UF_Si      1      MOL     Si1977     1977    0.00000000   28.085499
  1978     UF_Si      1      MOL     Si1978     1978    0.00000000   28.085499
  1979     UF_Si      1      MOL     Si1979     1979    0.00000000   28.085499
  1980     UF_Si      1      MOL     Si1980     1980    0.00000000   28.085499
  1981     UF_Si      1      MOL     Si1981     1981    0.00000000   28.085499
  1982     UF_Si      1      MOL     Si1982     1982    0.00000000   28.085499
  1983     os         1      MOL     O1983      1983    0.00000000   15.999405
  1984     os         1      MOL     O1984      1984    0.00000000   15.999405
  1985     os         1      MOL     O1985      1985    0.00000000   15.999405
  1986     os         1      MOL     O1986      1986    0.00000000   15.999405
  1987     os         1      MOL     O1987      1987    0.00000000   15.999405
  1988     os         1      MOL     O1988      1988    0.00000000   15.999405
  1989     os         1      MOL     O1989      1989    0.00000000   15.999405
  1990     os         1      MOL     O1990      1990    0.00000000   15.999405
  1991     os         1      MOL     O1991      1991    0.00000000   15.999405
  1992     os         1      MOL     O1992      1992    0.00000000   15.999405
  1993     os         1      MOL     O1993      1993    0.00000000   15.999405
  1994     os         1      MOL     O1994      1994    0.00000000   15.999405
  1995     os         1      MOL     O1995      1995    0.00000000   15.999405
  1996     os         1      MOL     O1996      1996    0.00000000   15.999405
  1997     os         1      MOL     O1997      1997    0.00000000   15.999405
  1998     os         1      MOL     O1998      1998    0.00000000   15.999405
  1999     os         1      MOL     O1999      1999    0.00000000   15.999405
  2000     os         1      MOL     O2000      2000    0.00000000   15.999405
  2001     os         1      MOL     O2001      2001    0.00000000   15.999405
  2002     os         1      MOL     O2002      2002    0.00000000   15.999405
  2003     os         1      MOL     O2003      2003    0.00000000   15.999405
  2004     os         1      MOL     O2004      2004    0.00000000   15.999405
  2005     UF_Si      1      MOL     Si2005     2005    0.00000000   28.085499
  2006     UF_Si      1      MOL     Si2006     2006    0.00000000   28.085499
  2007     UF_Si      1      MOL     Si2007     2007    0.00000000   28.085499
  2008     UF_Si      1      MOL     Si2008     2008    0.00000000   28.085499
  2009     UF_Si      1      MOL     Si2009     2009    0.00000000   28.085499
  2010     UF_Si      1      MOL     Si2010     2010    0.00000000   28.085499
  2011     UF_Si      1      MOL     Si2011     2011    0.00000000   28.085499
  2012     UF_Si      1      MOL     Si2012     2012    0.00000000   28.085499
  2013     UF_Si      1      MOL     Si2013     2013    0.00000000   28.085499
  2014     UF_Si      1      MOL     Si2014     2014    0.00000000   28.085499
  2015     UF_Si      1      MOL     Si2015     2015    0.00000000   28.085499
  2016     UF_Si      1      MOL     Si2016     2016    0.00000000   28.085499
  2017     os         1      MOL     O2017      2017    0.00000000   15.999405
  2018     os         1      MOL     O2018      2018    0.00000000   15.999405
  2019     os         1      MOL     O2019      2019    0.00000000   15.999405
  2020     os         1      MOL     O2020      2020    0.00000000   15.999405
  2021     o          1      MOL     O2021      2021    0.00000000   15.999405
  2022     os         1      MOL     O2022      2022    0.00000000   15.999405
  2023     os         1      MOL     O2023      2023    0.00000000   15.999405
  2024     os         1      MOL     O2024      2024    0.00000000   15.999405
  2025     os         1      MOL     O2025      2025    0.00000000   15.999405
  2026     os         1      MOL     O2026      2026    0.00000000   15.999405
  2027     os         1      MOL     O2027      2027    0.00000000   15.999405
  2028     o          1      MOL     O2028      2028    0.00000000   15.999405
  2029     os         1      MOL     O2029      2029    0.00000000   15.999405
  2030     os         1      MOL     O2030      2030    0.00000000   15.999405
  2031     os         1      MOL     O2031      2031    0.00000000   15.999405
  2032     os         1      MOL     O2032      2032    0.00000000   15.999405
  2033     os         1      MOL     O2033      2033    0.00000000   15.999405
  2034     os         1      MOL     O2034      2034    0.00000000   15.999405
  2035     o          1      MOL     O2035      2035    0.00000000   15.999405
  2036     os         1      MOL     O2036      2036    0.00000000   15.999405
  2037     os         1      MOL     O2037      2037    0.00000000   15.999405
  2038     os         1      MOL     O2038      2038    0.00000000   15.999405
  2039     os         1      MOL     O2039      2039    0.00000000   15.999405
  2040     o          1      MOL     O2040      2040    0.00000000   15.999405
  2041     os         1      MOL     O2041      2041    0.00000000   15.999405
  2042     os         1      MOL     O2042      2042    0.00000000   15.999405
  2043     UF_Si      1      MOL     Si2043     2043    0.00000000   28.085499
  2044     UF_Si      1      MOL     Si2044     2044    0.00000000   28.085499
  2045     UF_Si      1      MOL     Si2045     2045    0.00000000   28.085499
  2046     UF_Si      1      MOL     Si2046     2046    0.00000000   28.085499
  2047     UF_Si      1      MOL     Si2047     2047    0.00000000   28.085499
  2048     UF_Si      1      MOL     Si2048     2048    0.00000000   28.085499
  2049     UF_Si      1      MOL     Si2049     2049    0.00000000   28.085499
  2050     UF_Si      1      MOL     Si2050     2050    0.00000000   28.085499
  2051     UF_Si      1      MOL     Si2051     2051    0.00000000   28.085499
  2052     UF_Si      1      MOL     Si2052     2052    0.00000000   28.085499
  2053     UF_Si      1      MOL     Si2053     2053    0.00000000   28.085499
  2054     UF_Si      1      MOL     Si2054     2054    0.00000000   28.085499
  2055     os         1      MOL     O2055      2055    0.00000000   15.999405
  2056     os         1      MOL     O2056      2056    0.00000000   15.999405
  2057     os         1      MOL     O2057      2057    0.00000000   15.999405
  2058     os         1      MOL     O2058      2058    0.00000000   15.999405
  2059     os         1      MOL     O2059      2059    0.00000000   15.999405
  2060     os         1      MOL     O2060      2060    0.00000000   15.999405
  2061     os         1      MOL     O2061      2061    0.00000000   15.999405
  2062     os         1      MOL     O2062      2062    0.00000000   15.999405
  2063     os         1      MOL     O2063      2063    0.00000000   15.999405
  2064     os         1      MOL     O2064      2064    0.00000000   15.999405
  2065     os         1      MOL     O2065      2065    0.00000000   15.999405
  2066     os         1      MOL     O2066      2066    0.00000000   15.999405
  2067     os         1      MOL     O2067      2067    0.00000000   15.999405
  2068     os         1      MOL     O2068      2068    0.00000000   15.999405
  2069     os         1      MOL     O2069      2069    0.00000000   15.999405
  2070     o          1      MOL     O2070      2070    0.00000000   15.999405
  2071     os         1      MOL     O2071      2071    0.00000000   15.999405
  2072     os         1      MOL     O2072      2072    0.00000000   15.999405
  2073     os         1      MOL     O2073      2073    0.00000000   15.999405
  2074     os         1      MOL     O2074      2074    0.00000000   15.999405
  2075     os         1      MOL     O2075      2075    0.00000000   15.999405
  2076     os         1      MOL     O2076      2076    0.00000000   15.999405
  2077     os         1      MOL     O2077      2077    0.00000000   15.999405
  2078     os         1      MOL     O2078      2078    0.00000000   15.999405
  2079     os         1      MOL     O2079      2079    0.00000000   15.999405
  2080     os         1      MOL     O2080      2080    0.00000000   15.999405
  2081     UF_Si      1      MOL     Si2081     2081    0.00000000   28.085499
  2082     UF_Si      1      MOL     Si2082     2082    0.00000000   28.085499
  2083     UF_Si      1      MOL     Si2083     2083    0.00000000   28.085499
  2084     UF_Si      1      MOL     Si2084     2084    0.00000000   28.085499
  2085     UF_Si      1      MOL     Si2085     2085    0.00000000   28.085499
  2086     UF_Si      1      MOL     Si2086     2086    0.00000000   28.085499
  2087     UF_Si      1      MOL     Si2087     2087    0.00000000   28.085499
  2088     UF_Si      1      MOL     Si2088     2088    0.00000000   28.085499
  2089     UF_Si      1      MOL     Si2089     2089    0.00000000   28.085499
  2090     UF_Si      1      MOL     Si2090     2090    0.00000000   28.085499
  2091     UF_Si      1      MOL     Si2091     2091    0.00000000   28.085499
  2092     UF_Si      1      MOL     Si2092     2092    0.00000000   28.085499
  2093     o          1      MOL     O2093      2093    0.00000000   15.999405
  2094     os         1      MOL     O2094      2094    0.00000000   15.999405
  2095     os         1      MOL     O2095      2095    0.00000000   15.999405
  2096     os         1      MOL     O2096      2096    0.00000000   15.999405
  2097     os         1      MOL     O2097      2097    0.00000000   15.999405
  2098     os         1      MOL     O2098      2098    0.00000000   15.999405
  2099     os         1      MOL     O2099      2099    0.00000000   15.999405
  2100     os         1      MOL     O2100      2100    0.00000000   15.999405
  2101     os         1      MOL     O2101      2101    0.00000000   15.999405
  2102     os         1      MOL     O2102      2102    0.00000000   15.999405
  2103     os         1      MOL     O2103      2103    0.00000000   15.999405
  2104     os         1      MOL     O2104      2104    0.00000000   15.999405
  2105     os         1      MOL     O2105      2105    0.00000000   15.999405
  2106     os         1      MOL     O2106      2106    0.00000000   15.999405
  2107     os         1      MOL     O2107      2107    0.00000000   15.999405
  2108     os         1      MOL     O2108      2108    0.00000000   15.999405
  2109     os         1      MOL     O2109      2109    0.00000000   15.999405
  2110     os         1      MOL     O2110      2110    0.00000000   15.999405
  2111     os         1      MOL     O2111      2111    0.00000000   15.999405
  2112     os         1      MOL     O2112      2112    0.00000000   15.999405
  2113     os         1      MOL     O2113      2113    0.00000000   15.999405
  2114     os         1      MOL     O2114      2114    0.00000000   15.999405
  2115     os         1      MOL     O2115      2115    0.00000000   15.999405
  2116     os         1      MOL     O2116      2116    0.00000000   15.999405
  2117     os         1      MOL     O2117      2117    0.00000000   15.999405
  2118     os         1      MOL     O2118      2118    0.00000000   15.999405
  2119     UF_Si      1      MOL     Si2119     2119    0.00000000   28.085499
  2120     UF_Si      1      MOL     Si2120     2120    0.00000000   28.085499
  2121     UF_Si      1      MOL     Si2121     2121    0.00000000   28.085499
  2122     UF_Si      1      MOL     Si2122     2122    0.00000000   28.085499
  2123     UF_Si      1      MOL     Si2123     2123    0.00000000   28.085499
  2124     UF_Si      1      MOL     Si2124     2124    0.00000000   28.085499
  2125     UF_Si      1      MOL     Si2125     2125    0.00000000   28.085499
  2126     UF_Si      1      MOL     Si2126     2126    0.00000000   28.085499
  2127     UF_Si      1      MOL     Si2127     2127    0.00000000   28.085499
  2128     UF_Si      1      MOL     Si2128     2128    0.00000000   28.085499
  2129     UF_Si      1      MOL     Si2129     2129    0.00000000   28.085499
  2130     UF_Si      1      MOL     Si2130     2130    0.00000000   28.085499
  2131     os         1      MOL     O2131      2131    0.00000000   15.999405
  2132     os         1      MOL     O2132      2132    0.00000000   15.999405
  2133     os         1      MOL     O2133      2133    0.00000000   15.999405
  2134     os         1      MOL     O2134      2134    0.00000000   15.999405
  2135     os         1      MOL     O2135      2135    0.00000000   15.999405
  2136     os         1      MOL     O2136      2136    0.00000000   15.999405
  2137     os         1      MOL     O2137      2137    0.00000000   15.999405
  2138     os         1      MOL     O2138      2138    0.00000000   15.999405
  2139     os         1      MOL     O2139      2139    0.00000000   15.999405
  2140     os         1      MOL     O2140      2140    0.00000000   15.999405
  2141     os         1      MOL     O2141      2141    0.00000000   15.999405
  2142     os         1      MOL     O2142      2142    0.00000000   15.999405
  2143     os         1      MOL     O2143      2143    0.00000000   15.999405
  2144     os         1      MOL     O2144      2144    0.00000000   15.999405
  2145     os         1      MOL     O2145      2145    0.00000000   15.999405
  2146     os         1      MOL     O2146      2146    0.00000000   15.999405
  2147     os         1      MOL     O2147      2147    0.00000000   15.999405
  2148     os         1      MOL     O2148      2148    0.00000000   15.999405
  2149     os         1      MOL     O2149      2149    0.00000000   15.999405
  2150     os         1      MOL     O2150      2150    0.00000000   15.999405
  2151     os         1      MOL     O2151      2151    0.00000000   15.999405
  2152     os         1      MOL     O2152      2152    0.00000000   15.999405
  2153     os         1      MOL     O2153      2153    0.00000000   15.999405
  2154     os         1      MOL     O2154      2154    0.00000000   15.999405
  2155     os         1      MOL     O2155      2155    0.00000000   15.999405
  2156     os         1      MOL     O2156      2156    0.00000000   15.999405
  2157     UF_Si      1      MOL     Si2157     2157    0.00000000   28.085499
  2158     UF_Si      1      MOL     Si2158     2158    0.00000000   28.085499
  2159     UF_Si      1      MOL     Si2159     2159    0.00000000   28.085499
  2160     UF_Si      1      MOL     Si2160     2160    0.00000000   28.085499
  2161     UF_Si      1      MOL     Si2161     2161    0.00000000   28.085499
  2162     UF_Si      1      MOL     Si2162     2162    0.00000000   28.085499
  2163     UF_Si      1      MOL     Si2163     2163    0.00000000   28.085499
  2164     UF_Si      1      MOL     Si2164     2164    0.00000000   28.085499
  2165     UF_Si      1      MOL     Si2165     2165    0.00000000   28.085499
  2166     UF_Si      1      MOL     Si2166     2166    0.00000000   28.085499
  2167     UF_Si      1      MOL     Si2167     2167    0.00000000   28.085499
  2168     UF_Si      1      MOL     Si2168     2168    0.00000000   28.085499
  2169     os         1      MOL     O2169      2169    0.00000000   15.999405
  2170     os         1      MOL     O2170      2170    0.00000000   15.999405
  2171     os         1      MOL     O2171      2171    0.00000000   15.999405
  2172     os         1      MOL     O2172      2172    0.00000000   15.999405
  2173     os         1      MOL     O2173      2173    0.00000000   15.999405
  2174     os         1      MOL     O2174      2174    0.00000000   15.999405
  2175     os         1      MOL     O2175      2175    0.00000000   15.999405
  2176     os         1      MOL     O2176      2176    0.00000000   15.999405
  2177     os         1      MOL     O2177      2177    0.00000000   15.999405
  2178     os         1      MOL     O2178      2178    0.00000000   15.999405
  2179     os         1      MOL     O2179      2179    0.00000000   15.999405
  2180     os         1      MOL     O2180      2180    0.00000000   15.999405
  2181     os         1      MOL     O2181      2181    0.00000000   15.999405
  2182     os         1      MOL     O2182      2182    0.00000000   15.999405
  2183     os         1      MOL     O2183      2183    0.00000000   15.999405
  2184     os         1      MOL     O2184      2184    0.00000000   15.999405
  2185     os         1      MOL     O2185      2185    0.00000000   15.999405
  2186     os         1      MOL     O2186      2186    0.00000000   15.999405
  2187     os         1      MOL     O2187      2187    0.00000000   15.999405
  2188     os         1      MOL     O2188      2188    0.00000000   15.999405
  2189     os         1      MOL     O2189      2189    0.00000000   15.999405
  2190     os         1      MOL     O2190      2190    0.00000000   15.999405
  2191     UF_Si      1      MOL     Si2191     2191    0.00000000   28.085499
  2192     UF_Si      1      MOL     Si2192     2192    0.00000000   28.085499
  2193     UF_Si      1      MOL     Si2193     2193    0.00000000   28.085499
  2194     UF_Si      1      MOL     Si2194     2194    0.00000000   28.085499
  2195     UF_Si      1      MOL     Si2195     2195    0.00000000   28.085499
  2196     UF_Si      1      MOL     Si2196     2196    0.00000000   28.085499
  2197     UF_Si      1      MOL     Si2197     2197    0.00000000   28.085499
  2198     UF_Si      1      MOL     Si2198     2198    0.00000000   28.085499
  2199     UF_Si      1      MOL     Si2199     2199    0.00000000   28.085499
  2200     UF_Si      1      MOL     Si2200     2200    0.00000000   28.085499
  2201     UF_Si      1      MOL     Si2201     2201    0.00000000   28.085499
  2202     UF_Si      1      MOL     Si2202     2202    0.00000000   28.085499
  2203     o          1      MOL     O2203      2203    0.00000000   15.999405
  2204     os         1      MOL     O2204      2204    0.00000000   15.999405
  2205     os         1      MOL     O2205      2205    0.00000000   15.999405
  2206     os         1      MOL     O2206      2206    0.00000000   15.999405
  2207     os         1      MOL     O2207      2207    0.00000000   15.999405
  2208     os         1      MOL     O2208      2208    0.00000000   15.999405
  2209     os         1      MOL     O2209      2209    0.00000000   15.999405
  2210     os         1      MOL     O2210      2210    0.00000000   15.999405
  2211     os         1      MOL     O2211      2211    0.00000000   15.999405
  2212     os         1      MOL     O2212      2212    0.00000000   15.999405
  2213     os         1      MOL     O2213      2213    0.00000000   15.999405
  2214     os         1      MOL     O2214      2214    0.00000000   15.999405
  2215     os         1      MOL     O2215      2215    0.00000000   15.999405
  2216     os         1      MOL     O2216      2216    0.00000000   15.999405
  2217     os         1      MOL     O2217      2217    0.00000000   15.999405
  2218     os         1      MOL     O2218      2218    0.00000000   15.999405
  2219     os         1      MOL     O2219      2219    0.00000000   15.999405
  2220     os         1      MOL     O2220      2220    0.00000000   15.999405
  2221     os         1      MOL     O2221      2221    0.00000000   15.999405
  2222     os         1      MOL     O2222      2222    0.00000000   15.999405
  2223     os         1      MOL     O2223      2223    0.00000000   15.999405
  2224     os         1      MOL     O2224      2224    0.00000000   15.999405
  2225     UF_Si      1      MOL     Si2225     2225    0.00000000   28.085499
  2226     UF_Si      1      MOL     Si2226     2226    0.00000000   28.085499
  2227     UF_Si      1      MOL     Si2227     2227    0.00000000   28.085499
  2228     UF_Si      1      MOL     Si2228     2228    0.00000000   28.085499
  2229     UF_Si      1      MOL     Si2229     2229    0.00000000   28.085499
  2230     UF_Si      1      MOL     Si2230     2230    0.00000000   28.085499
  2231     UF_Si      1      MOL     Si2231     2231    0.00000000   28.085499
  2232     UF_Si      1      MOL     Si2232     2232    0.00000000   28.085499
  2233     UF_Si      1      MOL     Si2233     2233    0.00000000   28.085499
  2234     UF_Si      1      MOL     Si2234     2234    0.00000000   28.085499
  2235     UF_Si      1      MOL     Si2235     2235    0.00000000   28.085499
  2236     UF_Si      1      MOL     Si2236     2236    0.00000000   28.085499
  2237     os         1      MOL     O2237      2237    0.00000000   15.999405
  2238     os         1      MOL     O2238      2238    0.00000000   15.999405
  2239     os         1      MOL     O2239      2239    0.00000000   15.999405
  2240     os         1      MOL     O2240      2240    0.00000000   15.999405
  2241     os         1      MOL     O2241      2241    0.00000000   15.999405
  2242     os         1      MOL     O2242      2242    0.00000000   15.999405
  2243     os         1      MOL     O2243      2243    0.00000000   15.999405
  2244     os         1      MOL     O2244      2244    0.00000000   15.999405
  2245     os         1      MOL     O2245      2245    0.00000000   15.999405
  2246     os         1      MOL     O2246      2246    0.00000000   15.999405
  2247     os         1      MOL     O2247      2247    0.00000000   15.999405
  2248     os         1      MOL     O2248      2248    0.00000000   15.999405
  2249     os         1      MOL     O2249      2249    0.00000000   15.999405
  2250     os         1      MOL     O2250      2250    0.00000000   15.999405
  2251     os         1      MOL     O2251      2251    0.00000000   15.999405
  2252     o          1      MOL     O2252      2252    0.00000000   15.999405
  2253     os         1      MOL     O2253      2253    0.00000000   15.999405
  2254     os         1      MOL     O2254      2254    0.00000000   15.999405
  2255     os         1      MOL     O2255      2255    0.00000000   15.999405
  2256     os         1      MOL     O2256      2256    0.00000000   15.999405
  2257     os         1      MOL     O2257      2257    0.00000000   15.999405
  2258     os         1      MOL     O2258      2258    0.00000000   15.999405
  2259     UF_Si      1      MOL     Si2259     2259    0.00000000   28.085499
  2260     UF_Si      1      MOL     Si2260     2260    0.00000000   28.085499
  2261     UF_Si      1      MOL     Si2261     2261    0.00000000   28.085499
  2262     UF_Si      1      MOL     Si2262     2262    0.00000000   28.085499
  2263     UF_Si      1      MOL     Si2263     2263    0.00000000   28.085499
  2264     UF_Si      1      MOL     Si2264     2264    0.00000000   28.085499
  2265     UF_Si      1      MOL     Si2265     2265    0.00000000   28.085499
  2266     UF_Si      1      MOL     Si2266     2266    0.00000000   28.085499
  2267     UF_Si      1      MOL     Si2267     2267    0.00000000   28.085499
  2268     UF_Si      1      MOL     Si2268     2268    0.00000000   28.085499
  2269     UF_Si      1      MOL     Si2269     2269    0.00000000   28.085499
  2270     UF_Si      1      MOL     Si2270     2270    0.00000000   28.085499
  2271     os         1      MOL     O2271      2271    0.00000000   15.999405
  2272     os         1      MOL     O2272      2272    0.00000000   15.999405
  2273     os         1      MOL     O2273      2273    0.00000000   15.999405
  2274     os         1      MOL     O2274      2274    0.00000000   15.999405
  2275     o          1      MOL     O2275      2275    0.00000000   15.999405
  2276     os         1      MOL     O2276      2276    0.00000000   15.999405
  2277     os         1      MOL     O2277      2277    0.00000000   15.999405
  2278     os         1      MOL     O2278      2278    0.00000000   15.999405
  2279     os         1      MOL     O2279      2279    0.00000000   15.999405
  2280     os         1      MOL     O2280      2280    0.00000000   15.999405
  2281     os         1      MOL     O2281      2281    0.00000000   15.999405
  2282     o          1      MOL     O2282      2282    0.00000000   15.999405
  2283     os         1      MOL     O2283      2283    0.00000000   15.999405
  2284     os         1      MOL     O2284      2284    0.00000000   15.999405
  2285     os         1      MOL     O2285      2285    0.00000000   15.999405
  2286     os         1      MOL     O2286      2286    0.00000000   15.999405
  2287     os         1      MOL     O2287      2287    0.00000000   15.999405
  2288     o          1      MOL     O2288      2288    0.00000000   15.999405
  2289     os         1      MOL     O2289      2289    0.00000000   15.999405
  2290     os         1      MOL     O2290      2290    0.00000000   15.999405
  2291     o          1      MOL     O2291      2291    0.00000000   15.999405
  2292     os         1      MOL     O2292      2292    0.00000000   15.999405
  2293     UF_Si      1      MOL     Si2293     2293    0.00000000   28.085499
  2294     UF_Si      1      MOL     Si2294     2294    0.00000000   28.085499
  2295     UF_Si      1      MOL     Si2295     2295    0.00000000   28.085499
  2296     UF_Si      1      MOL     Si2296     2296    0.00000000   28.085499
  2297     UF_Si      1      MOL     Si2297     2297    0.00000000   28.085499
  2298     UF_Si      1      MOL     Si2298     2298    0.00000000   28.085499
  2299     UF_Si      1      MOL     Si2299     2299    0.00000000   28.085499
  2300     UF_Si      1      MOL     Si2300     2300    0.00000000   28.085499
  2301     UF_Si      1      MOL     Si2301     2301    0.00000000   28.085499
  2302     UF_Si      1      MOL     Si2302     2302    0.00000000   28.085499
  2303     UF_Si      1      MOL     Si2303     2303    0.00000000   28.085499
  2304     UF_Si      1      MOL     Si2304     2304    0.00000000   28.085499
  2305     os         1      MOL     O2305      2305    0.00000000   15.999405
  2306     os         1      MOL     O2306      2306    0.00000000   15.999405
  2307     os         1      MOL     O2307      2307    0.00000000   15.999405
  2308     os         1      MOL     O2308      2308    0.00000000   15.999405
  2309     os         1      MOL     O2309      2309    0.00000000   15.999405
  2310     o          1      MOL     O2310      2310    0.00000000   15.999405
  2311     os         1      MOL     O2311      2311    0.00000000   15.999405
  2312     os         1      MOL     O2312      2312    0.00000000   15.999405
  2313     os         1      MOL     O2313      2313    0.00000000   15.999405
  2314     os         1      MOL     O2314      2314    0.00000000   15.999405
  2315     os         1      MOL     O2315      2315    0.00000000   15.999405
  2316     os         1      MOL     O2316      2316    0.00000000   15.999405
  2317     os         1      MOL     O2317      2317    0.00000000   15.999405
  2318     o          1      MOL     O2318      2318    0.00000000   15.999405
  2319     os         1      MOL     O2319      2319    0.00000000   15.999405
  2320     os         1      MOL     O2320      2320    0.00000000   15.999405
  2321     os         1      MOL     O2321      2321    0.00000000   15.999405
  2322     os         1      MOL     O2322      2322    0.00000000   15.999405
  2323     os         1      MOL     O2323      2323    0.00000000   15.999405
  2324     os         1      MOL     O2324      2324    0.00000000   15.999405
  2325     os         1      MOL     O2325      2325    0.00000000   15.999405
  2326     os         1      MOL     O2326      2326    0.00000000   15.999405
  2327     os         1      MOL     O2327      2327    0.00000000   15.999405
  2328     os         1      MOL     O2328      2328    0.00000000   15.999405
  2329     os         1      MOL     O2329      2329    0.00000000   15.999405
  2330     os         1      MOL     O2330      2330    0.00000000   15.999405
  2331     UF_Si      1      MOL     Si2331     2331    0.00000000   28.085499
  2332     UF_Si      1      MOL     Si2332     2332    0.00000000   28.085499
  2333     UF_Si      1      MOL     Si2333     2333    0.00000000   28.085499
  2334     UF_Si      1      MOL     Si2334     2334    0.00000000   28.085499
  2335     UF_Si      1      MOL     Si2335     2335    0.00000000   28.085499
  2336     UF_Si      1      MOL     Si2336     2336    0.00000000   28.085499
  2337     UF_Si      1      MOL     Si2337     2337    0.00000000   28.085499
  2338     UF_Si      1      MOL     Si2338     2338    0.00000000   28.085499
  2339     UF_Si      1      MOL     Si2339     2339    0.00000000   28.085499
  2340     UF_Si      1      MOL     Si2340     2340    0.00000000   28.085499
  2341     UF_Si      1      MOL     Si2341     2341    0.00000000   28.085499
  2342     UF_Si      1      MOL     Si2342     2342    0.00000000   28.085499
  2343     os         1      MOL     O2343      2343    0.00000000   15.999405
  2344     os         1      MOL     O2344      2344    0.00000000   15.999405
  2345     os         1      MOL     O2345      2345    0.00000000   15.999405
  2346     o          1      MOL     O2346      2346    0.00000000   15.999405
  2347     os         1      MOL     O2347      2347    0.00000000   15.999405
  2348     os         1      MOL     O2348      2348    0.00000000   15.999405
  2349     os         1      MOL     O2349      2349    0.00000000   15.999405
  2350     os         1      MOL     O2350      2350    0.00000000   15.999405
  2351     os         1      MOL     O2351      2351    0.00000000   15.999405
  2352     o          1      MOL     O2352      2352    0.00000000   15.999405
  2353     os         1      MOL     O2353      2353    0.00000000   15.999405
  2354     os         1      MOL     O2354      2354    0.00000000   15.999405
  2355     os         1      MOL     O2355      2355    0.00000000   15.999405
  2356     os         1      MOL     O2356      2356    0.00000000   15.999405
  2357     os         1      MOL     O2357      2357    0.00000000   15.999405
  2358     o          1      MOL     O2358      2358    0.00000000   15.999405
  2359     os         1      MOL     O2359      2359    0.00000000   15.999405
  2360     os         1      MOL     O2360      2360    0.00000000   15.999405
  2361     os         1      MOL     O2361      2361    0.00000000   15.999405
  2362     os         1      MOL     O2362      2362    0.00000000   15.999405
  2363     os         1      MOL     O2363      2363    0.00000000   15.999405
  2364     os         1      MOL     O2364      2364    0.00000000   15.999405
  2365     os         1      MOL     O2365      2365    0.00000000   15.999405
  2366     os         1      MOL     O2366      2366    0.00000000   15.999405
  2367     os         1      MOL     O2367      2367    0.00000000   15.999405
  2368     os         1      MOL     O2368      2368    0.00000000   15.999405
  2369     UF_Si      1      MOL     Si2369     2369    0.00000000   28.085499
  2370     UF_Si      1      MOL     Si2370     2370    0.00000000   28.085499
  2371     UF_Si      1      MOL     Si2371     2371    0.00000000   28.085499
  2372     UF_Si      1      MOL     Si2372     2372    0.00000000   28.085499
  2373     UF_Si      1      MOL     Si2373     2373    0.00000000   28.085499
  2374     UF_Si      1      MOL     Si2374     2374    0.00000000   28.085499
  2375     UF_Si      1      MOL     Si2375     2375    0.00000000   28.085499
  2376     UF_Si      1      MOL     Si2376     2376    0.00000000   28.085499
  2377     UF_Si      1      MOL     Si2377     2377    0.00000000   28.085499
  2378     UF_Si      1      MOL     Si2378     2378    0.00000000   28.085499
  2379     UF_Si      1      MOL     Si2379     2379    0.00000000   28.085499
  2380     UF_Si      1      MOL     Si2380     2380    0.00000000   28.085499
  2381     o          1      MOL     O2381      2381    0.00000000   15.999405
  2382     os         1      MOL     O2382      2382    0.00000000   15.999405
  2383     os         1      MOL     O2383      2383    0.00000000   15.999405
  2384     os         1      MOL     O2384      2384    0.00000000   15.999405
  2385     os         1      MOL     O2385      2385    0.00000000   15.999405
  2386     os         1      MOL     O2386      2386    0.00000000   15.999405
  2387     os         1      MOL     O2387      2387    0.00000000   15.999405
  2388     os         1      MOL     O2388      2388    0.00000000   15.999405
  2389     os         1      MOL     O2389      2389    0.00000000   15.999405
  2390     os         1      MOL     O2390      2390    0.00000000   15.999405
  2391     os         1      MOL     O2391      2391    0.00000000   15.999405
  2392     os         1      MOL     O2392      2392    0.00000000   15.999405
  2393     os         1      MOL     O2393      2393    0.00000000   15.999405
  2394     os         1      MOL     O2394      2394    0.00000000   15.999405
  2395     os         1      MOL     O2395      2395    0.00000000   15.999405
  2396     os         1      MOL     O2396      2396    0.00000000   15.999405
  2397     os         1      MOL     O2397      2397    0.00000000   15.999405
  2398     os         1      MOL     O2398      2398    0.00000000   15.999405
  2399     os         1      MOL     O2399      2399    0.00000000   15.999405
  2400     os         1      MOL     O2400      2400    0.00000000   15.999405
  2401     os         1      MOL     O2401      2401    0.00000000   15.999405
  2402     os         1      MOL     O2402      2402    0.00000000   15.999405
  2403     os         1      MOL     O2403      2403    0.00000000   15.999405
  2404     os         1      MOL     O2404      2404    0.00000000   15.999405
  2405     os         1      MOL     O2405      2405    0.00000000   15.999405
  2406     os         1      MOL     O2406      2406    0.00000000   15.999405
  2407     UF_Si      1      MOL     Si2407     2407    0.00000000   28.085499
  2408     UF_Si      1      MOL     Si2408     2408    0.00000000   28.085499
  2409     UF_Si      1      MOL     Si2409     2409    0.00000000   28.085499
  2410     UF_Si      1      MOL     Si2410     2410    0.00000000   28.085499
  2411     UF_Si      1      MOL     Si2411     2411    0.00000000   28.085499
  2412     UF_Si      1      MOL     Si2412     2412    0.00000000   28.085499
  2413     UF_Si      1      MOL     Si2413     2413    0.00000000   28.085499
  2414     UF_Si      1      MOL     Si2414     2414    0.00000000   28.085499
  2415     UF_Si      1      MOL     Si2415     2415    0.00000000   28.085499
  2416     UF_Si      1      MOL     Si2416     2416    0.00000000   28.085499
  2417     UF_Si      1      MOL     Si2417     2417    0.00000000   28.085499
  2418     UF_Si      1      MOL     Si2418     2418    0.00000000   28.085499
  2419     os         1      MOL     O2419      2419    0.00000000   15.999405
  2420     os         1      MOL     O2420      2420    0.00000000   15.999405
  2421     os         1      MOL     O2421      2421    0.00000000   15.999405
  2422     os         1      MOL     O2422      2422    0.00000000   15.999405
  2423     o          1      MOL     O2423      2423    0.00000000   15.999405
  2424     os         1      MOL     O2424      2424    0.00000000   15.999405
  2425     os         1      MOL     O2425      2425    0.00000000   15.999405
  2426     os         1      MOL     O2426      2426    0.00000000   15.999405
  2427     os         1      MOL     O2427      2427    0.00000000   15.999405
  2428     os         1      MOL     O2428      2428    0.00000000   15.999405
  2429     os         1      MOL     O2429      2429    0.00000000   15.999405
  2430     o          1      MOL     O2430      2430    0.00000000   15.999405
  2431     os         1      MOL     O2431      2431    0.00000000   15.999405
  2432     os         1      MOL     O2432      2432    0.00000000   15.999405
  2433     os         1      MOL     O2433      2433    0.00000000   15.999405
  2434     os         1      MOL     O2434      2434    0.00000000   15.999405
  2435     os         1      MOL     O2435      2435    0.00000000   15.999405
  2436     os         1      MOL     O2436      2436    0.00000000   15.999405
  2437     o          1      MOL     O2437      2437    0.00000000   15.999405
  2438     os         1      MOL     O2438      2438    0.00000000   15.999405
  2439     os         1      MOL     O2439      2439    0.00000000   15.999405
  2440     os         1      MOL     O2440      2440    0.00000000   15.999405
  2441     os         1      MOL     O2441      2441    0.00000000   15.999405
  2442     o          1      MOL     O2442      2442    0.00000000   15.999405
  2443     os         1      MOL     O2443      2443    0.00000000   15.999405
  2444     os         1      MOL     O2444      2444    0.00000000   15.999405
  2445     UF_Si      1      MOL     Si2445     2445    0.00000000   28.085499
  2446     UF_Si      1      MOL     Si2446     2446    0.00000000   28.085499
  2447     UF_Si      1      MOL     Si2447     2447    0.00000000   28.085499
  2448     UF_Si      1      MOL     Si2448     2448    0.00000000   28.085499
  2449     UF_Si      1      MOL     Si2449     2449    0.00000000   28.085499
  2450     UF_Si      1      MOL     Si2450     2450    0.00000000   28.085499
  2451     UF_Si      1      MOL     Si2451     2451    0.00000000   28.085499
  2452     UF_Si      1      MOL     Si2452     2452    0.00000000   28.085499
  2453     UF_Si      1      MOL     Si2453     2453    0.00000000   28.085499
  2454     UF_Si      1      MOL     Si2454     2454    0.00000000   28.085499
  2455     UF_Si      1      MOL     Si2455     2455    0.00000000   28.085499
  2456     UF_Si      1      MOL     Si2456     2456    0.00000000   28.085499
  2457     os         1      MOL     O2457      2457    0.00000000   15.999405
  2458     os         1      MOL     O2458      2458    0.00000000   15.999405
  2459     os         1      MOL     O2459      2459    0.00000000   15.999405
  2460     o          1      MOL     O2460      2460    0.00000000   15.999405
  2461     o          1      MOL     O2461      2461    0.00000000   15.999405
  2462     os         1      MOL     O2462      2462    0.00000000   15.999405
  2463     os         1      MOL     O2463      2463    0.00000000   15.999405
  2464     os         1      MOL     O2464      2464    0.00000000   15.999405
  2465     os         1      MOL     O2465      2465    0.00000000   15.999405
  2466     o          1      MOL     O2466      2466    0.00000000   15.999405
  2467     os         1      MOL     O2467      2467    0.00000000   15.999405
  2468     o          1      MOL     O2468      2468    0.00000000   15.999405
  2469     os         1      MOL     O2469      2469    0.00000000   15.999405
  2470     os         1      MOL     O2470      2470    0.00000000   15.999405
  2471     os         1      MOL     O2471      2471    0.00000000   15.999405
  2472     os         1      MOL     O2472      2472    0.00000000   15.999405
  2473     os         1      MOL     O2473      2473    0.00000000   15.999405
  2474     o          1      MOL     O2474      2474    0.00000000   15.999405
  2475     os         1      MOL     O2475      2475    0.00000000   15.999405
  2476     os         1      MOL     O2476      2476    0.00000000   15.999405
  2477     o          1      MOL     O2477      2477    0.00000000   15.999405
  2478     os         1      MOL     O2478      2478    0.00000000   15.999405
  2479     UF_Si      1      MOL     Si2479     2479    0.00000000   28.085499
  2480     UF_Si      1      MOL     Si2480     2480    0.00000000   28.085499
  2481     UF_Si      1      MOL     Si2481     2481    0.00000000   28.085499
  2482     UF_Si      1      MOL     Si2482     2482    0.00000000   28.085499
  2483     UF_Si      1      MOL     Si2483     2483    0.00000000   28.085499
  2484     UF_Si      1      MOL     Si2484     2484    0.00000000   28.085499
  2485     UF_Si      1      MOL     Si2485     2485    0.00000000   28.085499
  2486     UF_Si      1      MOL     Si2486     2486    0.00000000   28.085499
  2487     UF_Si      1      MOL     Si2487     2487    0.00000000   28.085499
  2488     UF_Si      1      MOL     Si2488     2488    0.00000000   28.085499
  2489     UF_Si      1      MOL     Si2489     2489    0.00000000   28.085499
  2490     UF_Si      1      MOL     Si2490     2490    0.00000000   28.085499
  2491     o          1      MOL     O2491      2491    0.00000000   15.999405
  2492     os         1      MOL     O2492      2492    0.00000000   15.999405
  2493     os         1      MOL     O2493      2493    0.00000000   15.999405
  2494     os         1      MOL     O2494      2494    0.00000000   15.999405
  2495     os         1      MOL     O2495      2495    0.00000000   15.999405
  2496     o          1      MOL     O2496      2496    0.00000000   15.999405
  2497     os         1      MOL     O2497      2497    0.00000000   15.999405
  2498     os         1      MOL     O2498      2498    0.00000000   15.999405
  2499     os         1      MOL     O2499      2499    0.00000000   15.999405
  2500     os         1      MOL     O2500      2500    0.00000000   15.999405
  2501     os         1      MOL     O2501      2501    0.00000000   15.999405
  2502     os         1      MOL     O2502      2502    0.00000000   15.999405
  2503     os         1      MOL     O2503      2503    0.00000000   15.999405
  2504     o          1      MOL     O2504      2504    0.00000000   15.999405
  2505     os         1      MOL     O2505      2505    0.00000000   15.999405
  2506     os         1      MOL     O2506      2506    0.00000000   15.999405
  2507     os         1      MOL     O2507      2507    0.00000000   15.999405
  2508     os         1      MOL     O2508      2508    0.00000000   15.999405
  2509     os         1      MOL     O2509      2509    0.00000000   15.999405
  2510     os         1      MOL     O2510      2510    0.00000000   15.999405
  2511     os         1      MOL     O2511      2511    0.00000000   15.999405
  2512     os         1      MOL     O2512      2512    0.00000000   15.999405
  2513     UF_Si      1      MOL     Si2513     2513    0.00000000   28.085499
  2514     UF_Si      1      MOL     Si2514     2514    0.00000000   28.085499
  2515     UF_Si      1      MOL     Si2515     2515    0.00000000   28.085499
  2516     UF_Si      1      MOL     Si2516     2516    0.00000000   28.085499
  2517     UF_Si      1      MOL     Si2517     2517    0.00000000   28.085499
  2518     UF_Si      1      MOL     Si2518     2518    0.00000000   28.085499
  2519     UF_Si      1      MOL     Si2519     2519    0.00000000   28.085499
  2520     UF_Si      1      MOL     Si2520     2520    0.00000000   28.085499
  2521     UF_Si      1      MOL     Si2521     2521    0.00000000   28.085499
  2522     UF_Si      1      MOL     Si2522     2522    0.00000000   28.085499
  2523     UF_Si      1      MOL     Si2523     2523    0.00000000   28.085499
  2524     UF_Si      1      MOL     Si2524     2524    0.00000000   28.085499
  2525     os         1      MOL     O2525      2525    0.00000000   15.999405
  2526     os         1      MOL     O2526      2526    0.00000000   15.999405
  2527     os         1      MOL     O2527      2527    0.00000000   15.999405
  2528     os         1      MOL     O2528      2528    0.00000000   15.999405
  2529     os         1      MOL     O2529      2529    0.00000000   15.999405
  2530     os         1      MOL     O2530      2530    0.00000000   15.999405
  2531     os         1      MOL     O2531      2531    0.00000000   15.999405
  2532     os         1      MOL     O2532      2532    0.00000000   15.999405
  2533     os         1      MOL     O2533      2533    0.00000000   15.999405
  2534     os         1      MOL     O2534      2534    0.00000000   15.999405
  2535     os         1      MOL     O2535      2535    0.00000000   15.999405
  2536     os         1      MOL     O2536      2536    0.00000000   15.999405
  2537     os         1      MOL     O2537      2537    0.00000000   15.999405
  2538     os         1      MOL     O2538      2538    0.00000000   15.999405
  2539     os         1      MOL     O2539      2539    0.00000000   15.999405
  2540     o          1      MOL     O2540      2540    0.00000000   15.999405
  2541     os         1      MOL     O2541      2541    0.00000000   15.999405
  2542     os         1      MOL     O2542      2542    0.00000000   15.999405
  2543     os         1      MOL     O2543      2543    0.00000000   15.999405
  2544     os         1      MOL     O2544      2544    0.00000000   15.999405
  2545     os         1      MOL     O2545      2545    0.00000000   15.999405
  2546     os         1      MOL     O2546      2546    0.00000000   15.999405
  2547     UF_Si      1      MOL     Si2547     2547    0.00000000   28.085499
  2548     UF_Si      1      MOL     Si2548     2548    0.00000000   28.085499
  2549     UF_Si      1      MOL     Si2549     2549    0.00000000   28.085499
  2550     UF_Si      1      MOL     Si2550     2550    0.00000000   28.085499
  2551     UF_Si      1      MOL     Si2551     2551    0.00000000   28.085499
  2552     UF_Si      1      MOL     Si2552     2552    0.00000000   28.085499
  2553     UF_Si      1      MOL     Si2553     2553    0.00000000   28.085499
  2554     UF_Si      1      MOL     Si2554     2554    0.00000000   28.085499
  2555     UF_Si      1      MOL     Si2555     2555    0.00000000   28.085499
  2556     UF_Si      1      MOL     Si2556     2556    0.00000000   28.085499
  2557     UF_Si      1      MOL     Si2557     2557    0.00000000   28.085499
  2558     UF_Si      1      MOL     Si2558     2558    0.00000000   28.085499
  2559     os         1      MOL     O2559      2559    0.00000000   15.999405
  2560     os         1      MOL     O2560      2560    0.00000000   15.999405
  2561     os         1      MOL     O2561      2561    0.00000000   15.999405
  2562     os         1      MOL     O2562      2562    0.00000000   15.999405
  2563     os         1      MOL     O2563      2563    0.00000000   15.999405
  2564     os         1      MOL     O2564      2564    0.00000000   15.999405
  2565     os         1      MOL     O2565      2565    0.00000000   15.999405
  2566     os         1      MOL     O2566      2566    0.00000000   15.999405
  2567     os         1      MOL     O2567      2567    0.00000000   15.999405
  2568     os         1      MOL     O2568      2568    0.00000000   15.999405
  2569     os         1      MOL     O2569      2569    0.00000000   15.999405
  2570     os         1      MOL     O2570      2570    0.00000000   15.999405
  2571     os         1      MOL     O2571      2571    0.00000000   15.999405
  2572     os         1      MOL     O2572      2572    0.00000000   15.999405
  2573     os         1      MOL     O2573      2573    0.00000000   15.999405
  2574     os         1      MOL     O2574      2574    0.00000000   15.999405
  2575     os         1      MOL     O2575      2575    0.00000000   15.999405
  2576     os         1      MOL     O2576      2576    0.00000000   15.999405
  2577     os         1      MOL     O2577      2577    0.00000000   15.999405
  2578     os         1      MOL     O2578      2578    0.00000000   15.999405
  2579     os         1      MOL     O2579      2579    0.00000000   15.999405
  2580     os         1      MOL     O2580      2580    0.00000000   15.999405
  2581     UF_Si      1      MOL     Si2581     2581    0.00000000   28.085499
  2582     UF_Si      1      MOL     Si2582     2582    0.00000000   28.085499
  2583     UF_Si      1      MOL     Si2583     2583    0.00000000   28.085499
  2584     UF_Si      1      MOL     Si2584     2584    0.00000000   28.085499
  2585     UF_Si      1      MOL     Si2585     2585    0.00000000   28.085499
  2586     UF_Si      1      MOL     Si2586     2586    0.00000000   28.085499
  2587     UF_Si      1      MOL     Si2587     2587    0.00000000   28.085499
  2588     UF_Si      1      MOL     Si2588     2588    0.00000000   28.085499
  2589     UF_Si      1      MOL     Si2589     2589    0.00000000   28.085499
  2590     UF_Si      1      MOL     Si2590     2590    0.00000000   28.085499
  2591     UF_Si      1      MOL     Si2591     2591    0.00000000   28.085499
  2592     UF_Si      1      MOL     Si2592     2592    0.00000000   28.085499
  2593     os         1      MOL     O2593      2593    0.00000000   15.999405
  2594     os         1      MOL     O2594      2594    0.00000000   15.999405
  2595     os         1      MOL     O2595      2595    0.00000000   15.999405
  2596     os         1      MOL     O2596      2596    0.00000000   15.999405
  2597     os         1      MOL     O2597      2597    0.00000000   15.999405
  2598     o          1      MOL     O2598      2598    0.00000000   15.999405
  2599     os         1      MOL     O2599      2599    0.00000000   15.999405
  2600     os         1      MOL     O2600      2600    0.00000000   15.999405
  2601     os         1      MOL     O2601      2601    0.00000000   15.999405
  2602     os         1      MOL     O2602      2602    0.00000000   15.999405
  2603     os         1      MOL     O2603      2603    0.00000000   15.999405
  2604     os         1      MOL     O2604      2604    0.00000000   15.999405
  2605     os         1      MOL     O2605      2605    0.00000000   15.999405
  2606     o          1      MOL     O2606      2606    0.00000000   15.999405
  2607     os         1      MOL     O2607      2607    0.00000000   15.999405
  2608     os         1      MOL     O2608      2608    0.00000000   15.999405
  2609     os         1      MOL     O2609      2609    0.00000000   15.999405
  2610     os         1      MOL     O2610      2610    0.00000000   15.999405
  2611     os         1      MOL     O2611      2611    0.00000000   15.999405
  2612     os         1      MOL     O2612      2612    0.00000000   15.999405
  2613     os         1      MOL     O2613      2613    0.00000000   15.999405
  2614     os         1      MOL     O2614      2614    0.00000000   15.999405
  2615     os         1      MOL     O2615      2615    0.00000000   15.999405
  2616     os         1      MOL     O2616      2616    0.00000000   15.999405
  2617     os         1      MOL     O2617      2617    0.00000000   15.999405
  2618     os         1      MOL     O2618      2618    0.00000000   15.999405
  2619     UF_Si      1      MOL     Si2619     2619    0.00000000   28.085499
  2620     UF_Si      1      MOL     Si2620     2620    0.00000000   28.085499
  2621     UF_Si      1      MOL     Si2621     2621    0.00000000   28.085499
  2622     UF_Si      1      MOL     Si2622     2622    0.00000000   28.085499
  2623     UF_Si      1      MOL     Si2623     2623    0.00000000   28.085499
  2624     UF_Si      1      MOL     Si2624     2624    0.00000000   28.085499
  2625     UF_Si      1      MOL     Si2625     2625    0.00000000   28.085499
  2626     UF_Si      1      MOL     Si2626     2626    0.00000000   28.085499
  2627     UF_Si      1      MOL     Si2627     2627    0.00000000   28.085499
  2628     UF_Si      1      MOL     Si2628     2628    0.00000000   28.085499
  2629     UF_Si      1      MOL     Si2629     2629    0.00000000   28.085499
  2630     UF_Si      1      MOL     Si2630     2630    0.00000000   28.085499
  2631     os         1      MOL     O2631      2631    0.00000000   15.999405
  2632     os         1      MOL     O2632      2632    0.00000000   15.999405
  2633     os         1      MOL     O2633      2633    0.00000000   15.999405
  2634     o          1      MOL     O2634      2634    0.00000000   15.999405
  2635     os         1      MOL     O2635      2635    0.00000000   15.999405
  2636     os         1      MOL     O2636      2636    0.00000000   15.999405
  2637     os         1      MOL     O2637      2637    0.00000000   15.999405
  2638     os         1      MOL     O2638      2638    0.00000000   15.999405
  2639     os         1      MOL     O2639      2639    0.00000000   15.999405
  2640     o          1      MOL     O2640      2640    0.00000000   15.999405
  2641     os         1      MOL     O2641      2641    0.00000000   15.999405
  2642     os         1      MOL     O2642      2642    0.00000000   15.999405
  2643     os         1      MOL     O2643      2643    0.00000000   15.999405
  2644     os         1      MOL     O2644      2644    0.00000000   15.999405
  2645     os         1      MOL     O2645      2645    0.00000000   15.999405
  2646     o          1      MOL     O2646      2646    0.00000000   15.999405
  2647     os         1      MOL     O2647      2647    0.00000000   15.999405
  2648     os         1      MOL     O2648      2648    0.00000000   15.999405
  2649     os         1      MOL     O2649      2649    0.00000000   15.999405
  2650     os         1      MOL     O2650      2650    0.00000000   15.999405
  2651     os         1      MOL     O2651      2651    0.00000000   15.999405
  2652     os         1      MOL     O2652      2652    0.00000000   15.999405
  2653     os         1      MOL     O2653      2653    0.00000000   15.999405
  2654     os         1      MOL     O2654      2654    0.00000000   15.999405
  2655     os         1      MOL     O2655      2655    0.00000000   15.999405
  2656     os         1      MOL     O2656      2656    0.00000000   15.999405
  2657     UF_Si      1      MOL     Si2657     2657    0.00000000   28.085499
  2658     UF_Si      1      MOL     Si2658     2658    0.00000000   28.085499
  2659     UF_Si      1      MOL     Si2659     2659    0.00000000   28.085499
  2660     UF_Si      1      MOL     Si2660     2660    0.00000000   28.085499
  2661     UF_Si      1      MOL     Si2661     2661    0.00000000   28.085499
  2662     UF_Si      1      MOL     Si2662     2662    0.00000000   28.085499
  2663     UF_Si      1      MOL     Si2663     2663    0.00000000   28.085499
  2664     UF_Si      1      MOL     Si2664     2664    0.00000000   28.085499
  2665     UF_Si      1      MOL     Si2665     2665    0.00000000   28.085499
  2666     UF_Si      1      MOL     Si2666     2666    0.00000000   28.085499
  2667     UF_Si      1      MOL     Si2667     2667    0.00000000   28.085499
  2668     UF_Si      1      MOL     Si2668     2668    0.00000000   28.085499
  2669     o          1      MOL     O2669      2669    0.00000000   15.999405
  2670     os         1      MOL     O2670      2670    0.00000000   15.999405
  2671     os         1      MOL     O2671      2671    0.00000000   15.999405
  2672     os         1      MOL     O2672      2672    0.00000000   15.999405
  2673     os         1      MOL     O2673      2673    0.00000000   15.999405
  2674     os         1      MOL     O2674      2674    0.00000000   15.999405
  2675     os         1      MOL     O2675      2675    0.00000000   15.999405
  2676     os         1      MOL     O2676      2676    0.00000000   15.999405
  2677     os         1      MOL     O2677      2677    0.00000000   15.999405
  2678     os         1      MOL     O2678      2678    0.00000000   15.999405
  2679     os         1      MOL     O2679      2679    0.00000000   15.999405
  2680     os         1      MOL     O2680      2680    0.00000000   15.999405
  2681     os         1      MOL     O2681      2681    0.00000000   15.999405
  2682     os         1      MOL     O2682      2682    0.00000000   15.999405
  2683     os         1      MOL     O2683      2683    0.00000000   15.999405
  2684     os         1      MOL     O2684      2684    0.00000000   15.999405
  2685     os         1      MOL     O2685      2685    0.00000000   15.999405
  2686     os         1      MOL     O2686      2686    0.00000000   15.999405
  2687     os         1      MOL     O2687      2687    0.00000000   15.999405
  2688     os         1      MOL     O2688      2688    0.00000000   15.999405
  2689     os         1      MOL     O2689      2689    0.00000000   15.999405
  2690     os         1      MOL     O2690      2690    0.00000000   15.999405
  2691     os         1      MOL     O2691      2691    0.00000000   15.999405
  2692     os         1      MOL     O2692      2692    0.00000000   15.999405
  2693     os         1      MOL     O2693      2693    0.00000000   15.999405
  2694     os         1      MOL     O2694      2694    0.00000000   15.999405
  2695     UF_Si      1      MOL     Si2695     2695    0.00000000   28.085499
  2696     UF_Si      1      MOL     Si2696     2696    0.00000000   28.085499
  2697     UF_Si      1      MOL     Si2697     2697    0.00000000   28.085499
  2698     UF_Si      1      MOL     Si2698     2698    0.00000000   28.085499
  2699     UF_Si      1      MOL     Si2699     2699    0.00000000   28.085499
  2700     UF_Si      1      MOL     Si2700     2700    0.00000000   28.085499
  2701     UF_Si      1      MOL     Si2701     2701    0.00000000   28.085499
  2702     UF_Si      1      MOL     Si2702     2702    0.00000000   28.085499
  2703     UF_Si      1      MOL     Si2703     2703    0.00000000   28.085499
  2704     UF_Si      1      MOL     Si2704     2704    0.00000000   28.085499
  2705     UF_Si      1      MOL     Si2705     2705    0.00000000   28.085499
  2706     UF_Si      1      MOL     Si2706     2706    0.00000000   28.085499
  2707     os         1      MOL     O2707      2707    0.00000000   15.999405
  2708     os         1      MOL     O2708      2708    0.00000000   15.999405
  2709     os         1      MOL     O2709      2709    0.00000000   15.999405
  2710     os         1      MOL     O2710      2710    0.00000000   15.999405
  2711     os         1      MOL     O2711      2711    0.00000000   15.999405
  2712     os         1      MOL     O2712      2712    0.00000000   15.999405
  2713     os         1      MOL     O2713      2713    0.00000000   15.999405
  2714     os         1      MOL     O2714      2714    0.00000000   15.999405
  2715     os         1      MOL     O2715      2715    0.00000000   15.999405
  2716     os         1      MOL     O2716      2716    0.00000000   15.999405
  2717     os         1      MOL     O2717      2717    0.00000000   15.999405
  2718     os         1      MOL     O2718      2718    0.00000000   15.999405
  2719     os         1      MOL     O2719      2719    0.00000000   15.999405
  2720     os         1      MOL     O2720      2720    0.00000000   15.999405
  2721     os         1      MOL     O2721      2721    0.00000000   15.999405
  2722     os         1      MOL     O2722      2722    0.00000000   15.999405
  2723     os         1      MOL     O2723      2723    0.00000000   15.999405
  2724     os         1      MOL     O2724      2724    0.00000000   15.999405
  2725     os         1      MOL     O2725      2725    0.00000000   15.999405
  2726     os         1      MOL     O2726      2726    0.00000000   15.999405
  2727     os         1      MOL     O2727      2727    0.00000000   15.999405
  2728     os         1      MOL     O2728      2728    0.00000000   15.999405
  2729     os         1      MOL     O2729      2729    0.00000000   15.999405
  2730     os         1      MOL     O2730      2730    0.00000000   15.999405
  2731     os         1      MOL     O2731      2731    0.00000000   15.999405
  2732     os         1      MOL     O2732      2732    0.00000000   15.999405
  2733     UF_Si      1      MOL     Si2733     2733    0.00000000   28.085499
  2734     UF_Si      1      MOL     Si2734     2734    0.00000000   28.085499
  2735     UF_Si      1      MOL     Si2735     2735    0.00000000   28.085499
  2736     UF_Si      1      MOL     Si2736     2736    0.00000000   28.085499
  2737     UF_Si      1      MOL     Si2737     2737    0.00000000   28.085499
  2738     UF_Si      1      MOL     Si2738     2738    0.00000000   28.085499
  2739     UF_Si      1      MOL     Si2739     2739    0.00000000   28.085499
  2740     UF_Si      1      MOL     Si2740     2740    0.00000000   28.085499
  2741     UF_Si      1      MOL     Si2741     2741    0.00000000   28.085499
  2742     UF_Si      1      MOL     Si2742     2742    0.00000000   28.085499
  2743     UF_Si      1      MOL     Si2743     2743    0.00000000   28.085499
  2744     UF_Si      1      MOL     Si2744     2744    0.00000000   28.085499
  2745     os         1      MOL     O2745      2745    0.00000000   15.999405
  2746     os         1      MOL     O2746      2746    0.00000000   15.999405
  2747     os         1      MOL     O2747      2747    0.00000000   15.999405
  2748     o          1      MOL     O2748      2748    0.00000000   15.999405
  2749     os         1      MOL     O2749      2749    0.00000000   15.999405
  2750     os         1      MOL     O2750      2750    0.00000000   15.999405
  2751     os         1      MOL     O2751      2751    0.00000000   15.999405
  2752     os         1      MOL     O2752      2752    0.00000000   15.999405
  2753     os         1      MOL     O2753      2753    0.00000000   15.999405
  2754     o          1      MOL     O2754      2754    0.00000000   15.999405
  2755     os         1      MOL     O2755      2755    0.00000000   15.999405
  2756     os         1      MOL     O2756      2756    0.00000000   15.999405
  2757     os         1      MOL     O2757      2757    0.00000000   15.999405
  2758     os         1      MOL     O2758      2758    0.00000000   15.999405
  2759     os         1      MOL     O2759      2759    0.00000000   15.999405
  2760     os         1      MOL     O2760      2760    0.00000000   15.999405
  2761     os         1      MOL     O2761      2761    0.00000000   15.999405
  2762     os         1      MOL     O2762      2762    0.00000000   15.999405
  2763     os         1      MOL     O2763      2763    0.00000000   15.999405
  2764     os         1      MOL     O2764      2764    0.00000000   15.999405
  2765     os         1      MOL     O2765      2765    0.00000000   15.999405
  2766     os         1      MOL     O2766      2766    0.00000000   15.999405
  2767     UF_Si      1      MOL     Si2767     2767    0.00000000   28.085499
  2768     UF_Si      1      MOL     Si2768     2768    0.00000000   28.085499
  2769     UF_Si      1      MOL     Si2769     2769    0.00000000   28.085499
  2770     UF_Si      1      MOL     Si2770     2770    0.00000000   28.085499
  2771     UF_Si      1      MOL     Si2771     2771    0.00000000   28.085499
  2772     UF_Si      1      MOL     Si2772     2772    0.00000000   28.085499
  2773     UF_Si      1      MOL     Si2773     2773    0.00000000   28.085499
  2774     UF_Si      1      MOL     Si2774     2774    0.00000000   28.085499
  2775     UF_Si      1      MOL     Si2775     2775    0.00000000   28.085499
  2776     UF_Si      1      MOL     Si2776     2776    0.00000000   28.085499
  2777     UF_Si      1      MOL     Si2777     2777    0.00000000   28.085499
  2778     UF_Si      1      MOL     Si2778     2778    0.00000000   28.085499
  2779     o          1      MOL     O2779      2779    0.00000000   15.999405
  2780     os         1      MOL     O2780      2780    0.00000000   15.999405
  2781     os         1      MOL     O2781      2781    0.00000000   15.999405
  2782     os         1      MOL     O2782      2782    0.00000000   15.999405
  2783     os         1      MOL     O2783      2783    0.00000000   15.999405
  2784     o          1      MOL     O2784      2784    0.00000000   15.999405
  2785     os         1      MOL     O2785      2785    0.00000000   15.999405
  2786     os         1      MOL     O2786      2786    0.00000000   15.999405
  2787     os         1      MOL     O2787      2787    0.00000000   15.999405
  2788     os         1      MOL     O2788      2788    0.00000000   15.999405
  2789     os         1      MOL     O2789      2789    0.00000000   15.999405
  2790     os         1      MOL     O2790      2790    0.00000000   15.999405
  2791     os         1      MOL     O2791      2791    0.00000000   15.999405
  2792     o          1      MOL     O2792      2792    0.00000000   15.999405
  2793     os         1      MOL     O2793      2793    0.00000000   15.999405
  2794     os         1      MOL     O2794      2794    0.00000000   15.999405
  2795     os         1      MOL     O2795      2795    0.00000000   15.999405
  2796     os         1      MOL     O2796      2796    0.00000000   15.999405
  2797     os         1      MOL     O2797      2797    0.00000000   15.999405
  2798     os         1      MOL     O2798      2798    0.00000000   15.999405
  2799     os         1      MOL     O2799      2799    0.00000000   15.999405
  2800     os         1      MOL     O2800      2800    0.00000000   15.999405
  2801     UF_Si      1      MOL     Si2801     2801    0.00000000   28.085499
  2802     UF_Si      1      MOL     Si2802     2802    0.00000000   28.085499
  2803     UF_Si      1      MOL     Si2803     2803    0.00000000   28.085499
  2804     UF_Si      1      MOL     Si2804     2804    0.00000000   28.085499
  2805     UF_Si      1      MOL     Si2805     2805    0.00000000   28.085499
  2806     UF_Si      1      MOL     Si2806     2806    0.00000000   28.085499
  2807     UF_Si      1      MOL     Si2807     2807    0.00000000   28.085499
  2808     UF_Si      1      MOL     Si2808     2808    0.00000000   28.085499
  2809     UF_Si      1      MOL     Si2809     2809    0.00000000   28.085499
  2810     UF_Si      1      MOL     Si2810     2810    0.00000000   28.085499
  2811     UF_Si      1      MOL     Si2811     2811    0.00000000   28.085499
  2812     UF_Si      1      MOL     Si2812     2812    0.00000000   28.085499
  2813     os         1      MOL     O2813      2813    0.00000000   15.999405
  2814     os         1      MOL     O2814      2814    0.00000000   15.999405
  2815     os         1      MOL     O2815      2815    0.00000000   15.999405
  2816     os         1      MOL     O2816      2816    0.00000000   15.999405
  2817     os         1      MOL     O2817      2817    0.00000000   15.999405
  2818     os         1      MOL     O2818      2818    0.00000000   15.999405
  2819     os         1      MOL     O2819      2819    0.00000000   15.999405
  2820     os         1      MOL     O2820      2820    0.00000000   15.999405
  2821     os         1      MOL     O2821      2821    0.00000000   15.999405
  2822     os         1      MOL     O2822      2822    0.00000000   15.999405
  2823     os         1      MOL     O2823      2823    0.00000000   15.999405
  2824     os         1      MOL     O2824      2824    0.00000000   15.999405
  2825     os         1      MOL     O2825      2825    0.00000000   15.999405
  2826     os         1      MOL     O2826      2826    0.00000000   15.999405
  2827     os         1      MOL     O2827      2827    0.00000000   15.999405
  2828     o          1      MOL     O2828      2828    0.00000000   15.999405
  2829     os         1      MOL     O2829      2829    0.00000000   15.999405
  2830     os         1      MOL     O2830      2830    0.00000000   15.999405
  2831     os         1      MOL     O2831      2831    0.00000000   15.999405
  2832     os         1      MOL     O2832      2832    0.00000000   15.999405
  2833     os         1      MOL     O2833      2833    0.00000000   15.999405
  2834     os         1      MOL     O2834      2834    0.00000000   15.999405
  2835     UF_Si      1      MOL     Si2835     2835    0.00000000   28.085499
  2836     UF_Si      1      MOL     Si2836     2836    0.00000000   28.085499
  2837     UF_Si      1      MOL     Si2837     2837    0.00000000   28.085499
  2838     UF_Si      1      MOL     Si2838     2838    0.00000000   28.085499
  2839     UF_Si      1      MOL     Si2839     2839    0.00000000   28.085499
  2840     UF_Si      1      MOL     Si2840     2840    0.00000000   28.085499
  2841     UF_Si      1      MOL     Si2841     2841    0.00000000   28.085499
  2842     UF_Si      1      MOL     Si2842     2842    0.00000000   28.085499
  2843     UF_Si      1      MOL     Si2843     2843    0.00000000   28.085499
  2844     UF_Si      1      MOL     Si2844     2844    0.00000000   28.085499
  2845     UF_Si      1      MOL     Si2845     2845    0.00000000   28.085499
  2846     UF_Si      1      MOL     Si2846     2846    0.00000000   28.085499
  2847     os         1      MOL     O2847      2847    0.00000000   15.999405
  2848     os         1      MOL     O2848      2848    0.00000000   15.999405
  2849     os         1      MOL     O2849      2849    0.00000000   15.999405
  2850     os         1      MOL     O2850      2850    0.00000000   15.999405
  2851     os         1      MOL     O2851      2851    0.00000000   15.999405
  2852     os         1      MOL     O2852      2852    0.00000000   15.999405
  2853     os         1      MOL     O2853      2853    0.00000000   15.999405
  2854     os         1      MOL     O2854      2854    0.00000000   15.999405
  2855     os         1      MOL     O2855      2855    0.00000000   15.999405
  2856     os         1      MOL     O2856      2856    0.00000000   15.999405
  2857     os         1      MOL     O2857      2857    0.00000000   15.999405
  2858     os         1      MOL     O2858      2858    0.00000000   15.999405
  2859     os         1      MOL     O2859      2859    0.00000000   15.999405
  2860     os         1      MOL     O2860      2860    0.00000000   15.999405
  2861     os         1      MOL     O2861      2861    0.00000000   15.999405
  2862     os         1      MOL     O2862      2862    0.00000000   15.999405
  2863     os         1      MOL     O2863      2863    0.00000000   15.999405
  2864     os         1      MOL     O2864      2864    0.00000000   15.999405
  2865     os         1      MOL     O2865      2865    0.00000000   15.999405
  2866     os         1      MOL     O2866      2866    0.00000000   15.999405
  2867     os         1      MOL     O2867      2867    0.00000000   15.999405
  2868     os         1      MOL     O2868      2868    0.00000000   15.999405
  2869     UF_Si      1      MOL     Si2869     2869    0.00000000   28.085499
  2870     UF_Si      1      MOL     Si2870     2870    0.00000000   28.085499
  2871     UF_Si      1      MOL     Si2871     2871    0.00000000   28.085499
  2872     UF_Si      1      MOL     Si2872     2872    0.00000000   28.085499
  2873     UF_Si      1      MOL     Si2873     2873    0.00000000   28.085499
  2874     UF_Si      1      MOL     Si2874     2874    0.00000000   28.085499
  2875     UF_Si      1      MOL     Si2875     2875    0.00000000   28.085499
  2876     UF_Si      1      MOL     Si2876     2876    0.00000000   28.085499
  2877     UF_Si      1      MOL     Si2877     2877    0.00000000   28.085499
  2878     UF_Si      1      MOL     Si2878     2878    0.00000000   28.085499
  2879     UF_Si      1      MOL     Si2879     2879    0.00000000   28.085499
  2880     UF_Si      1      MOL     Si2880     2880    0.00000000   28.085499
  2881     os         1      MOL     O2881      2881    0.00000000   15.999405
  2882     os         1      MOL     O2882      2882    0.00000000   15.999405
  2883     os         1      MOL     O2883      2883    0.00000000   15.999405
  2884     os         1      MOL     O2884      2884    0.00000000   15.999405
  2885     os         1      MOL     O2885      2885    0.00000000   15.999405
  2886     o          1      MOL     O2886      2886    0.00000000   15.999405
  2887     os         1      MOL     O2887      2887    0.00000000   15.999405
  2888     os         1      MOL     O2888      2888    0.00000000   15.999405
  2889     os         1      MOL     O2889      2889    0.00000000   15.999405
  2890     os         1      MOL     O2890      2890    0.00000000   15.999405
  2891     os         1      MOL     O2891      2891    0.00000000   15.999405
  2892     os         1      MOL     O2892      2892    0.00000000   15.999405
  2893     os         1      MOL     O2893      2893    0.00000000   15.999405
  2894     o          1      MOL     O2894      2894    0.00000000   15.999405
  2895     os         1      MOL     O2895      2895    0.00000000   15.999405
  2896     os         1      MOL     O2896      2896    0.00000000   15.999405
  2897     os         1      MOL     O2897      2897    0.00000000   15.999405
  2898     os         1      MOL     O2898      2898    0.00000000   15.999405
  2899     os         1      MOL     O2899      2899    0.00000000   15.999405
  2900     os         1      MOL     O2900      2900    0.00000000   15.999405
  2901     os         1      MOL     O2901      2901    0.00000000   15.999405
  2902     os         1      MOL     O2902      2902    0.00000000   15.999405
  2903     os         1      MOL     O2903      2903    0.00000000   15.999405
  2904     os         1      MOL     O2904      2904    0.00000000   15.999405
  2905     os         1      MOL     O2905      2905    0.00000000   15.999405
  2906     os         1      MOL     O2906      2906    0.00000000   15.999405
  2907     UF_Si      1      MOL     Si2907     2907    0.00000000   28.085499
  2908     UF_Si      1      MOL     Si2908     2908    0.00000000   28.085499
  2909     UF_Si      1      MOL     Si2909     2909    0.00000000   28.085499
  2910     UF_Si      1      MOL     Si2910     2910    0.00000000   28.085499
  2911     UF_Si      1      MOL     Si2911     2911    0.00000000   28.085499
  2912     UF_Si      1      MOL     Si2912     2912    0.00000000   28.085499
  2913     UF_Si      1      MOL     Si2913     2913    0.00000000   28.085499
  2914     UF_Si      1      MOL     Si2914     2914    0.00000000   28.085499
  2915     UF_Si      1      MOL     Si2915     2915    0.00000000   28.085499
  2916     UF_Si      1      MOL     Si2916     2916    0.00000000   28.085499
  2917     UF_Si      1      MOL     Si2917     2917    0.00000000   28.085499
  2918     UF_Si      1      MOL     Si2918     2918    0.00000000   28.085499
  2919     os         1      MOL     O2919      2919    0.00000000   15.999405
  2920     os         1      MOL     O2920      2920    0.00000000   15.999405
  2921     os         1      MOL     O2921      2921    0.00000000   15.999405
  2922     o          1      MOL     O2922      2922    0.00000000   15.999405
  2923     os         1      MOL     O2923      2923    0.00000000   15.999405
  2924     os         1      MOL     O2924      2924    0.00000000   15.999405
  2925     os         1      MOL     O2925      2925    0.00000000   15.999405
  2926     os         1      MOL     O2926      2926    0.00000000   15.999405
  2927     os         1      MOL     O2927      2927    0.00000000   15.999405
  2928     o          1      MOL     O2928      2928    0.00000000   15.999405
  2929     os         1      MOL     O2929      2929    0.00000000   15.999405
  2930     os         1      MOL     O2930      2930    0.00000000   15.999405
  2931     os         1      MOL     O2931      2931    0.00000000   15.999405
  2932     os         1      MOL     O2932      2932    0.00000000   15.999405
  2933     os         1      MOL     O2933      2933    0.00000000   15.999405
  2934     o          1      MOL     O2934      2934    0.00000000   15.999405
  2935     os         1      MOL     O2935      2935    0.00000000   15.999405
  2936     os         1      MOL     O2936      2936    0.00000000   15.999405
  2937     os         1      MOL     O2937      2937    0.00000000   15.999405
  2938     os         1      MOL     O2938      2938    0.00000000   15.999405
  2939     os         1      MOL     O2939      2939    0.00000000   15.999405
  2940     os         1      MOL     O2940      2940    0.00000000   15.999405
  2941     os         1      MOL     O2941      2941    0.00000000   15.999405
  2942     os         1      MOL     O2942      2942    0.00000000   15.999405
  2943     os         1      MOL     O2943      2943    0.00000000   15.999405
  2944     os         1      MOL     O2944      2944    0.00000000   15.999405
  2945     UF_Si      1      MOL     Si2945     2945    0.00000000   28.085499
  2946     UF_Si      1      MOL     Si2946     2946    0.00000000   28.085499
  2947     UF_Si      1      MOL     Si2947     2947    0.00000000   28.085499
  2948     UF_Si      1      MOL     Si2948     2948    0.00000000   28.085499
  2949     UF_Si      1      MOL     Si2949     2949    0.00000000   28.085499
  2950     UF_Si      1      MOL     Si2950     2950    0.00000000   28.085499
  2951     UF_Si      1      MOL     Si2951     2951    0.00000000   28.085499
  2952     UF_Si      1      MOL     Si2952     2952    0.00000000   28.085499
  2953     UF_Si      1      MOL     Si2953     2953    0.00000000   28.085499
  2954     UF_Si      1      MOL     Si2954     2954    0.00000000   28.085499
  2955     UF_Si      1      MOL     Si2955     2955    0.00000000   28.085499
  2956     UF_Si      1      MOL     Si2956     2956    0.00000000   28.085499
  2957     o          1      MOL     O2957      2957    0.00000000   15.999405
  2958     os         1      MOL     O2958      2958    0.00000000   15.999405
  2959     os         1      MOL     O2959      2959    0.00000000   15.999405
  2960     os         1      MOL     O2960      2960    0.00000000   15.999405
  2961     os         1      MOL     O2961      2961    0.00000000   15.999405
  2962     os         1      MOL     O2962      2962    0.00000000   15.999405
  2963     os         1      MOL     O2963      2963    0.00000000   15.999405
  2964     os         1      MOL     O2964      2964    0.00000000   15.999405
  2965     os         1      MOL     O2965      2965    0.00000000   15.999405
  2966     os         1      MOL     O2966      2966    0.00000000   15.999405
  2967     os         1      MOL     O2967      2967    0.00000000   15.999405
  2968     os         1      MOL     O2968      2968    0.00000000   15.999405
  2969     os         1      MOL     O2969      2969    0.00000000   15.999405
  2970     os         1      MOL     O2970      2970    0.00000000   15.999405
  2971     os         1      MOL     O2971      2971    0.00000000   15.999405
  2972     os         1      MOL     O2972      2972    0.00000000   15.999405
  2973     os         1      MOL     O2973      2973    0.00000000   15.999405
  2974     os         1      MOL     O2974      2974    0.00000000   15.999405
  2975     os         1      MOL     O2975      2975    0.00000000   15.999405
  2976     os         1      MOL     O2976      2976    0.00000000   15.999405
  2977     os         1      MOL     O2977      2977    0.00000000   15.999405
  2978     os         1      MOL     O2978      2978    0.00000000   15.999405
  2979     os         1      MOL     O2979      2979    0.00000000   15.999405
  2980     os         1      MOL     O2980      2980    0.00000000   15.999405
  2981     os         1      MOL     O2981      2981    0.00000000   15.999405
  2982     os         1      MOL     O2982      2982    0.00000000   15.999405
  2983     UF_Si      1      MOL     Si2983     2983    0.00000000   28.085499
  2984     UF_Si      1      MOL     Si2984     2984    0.00000000   28.085499
  2985     UF_Si      1      MOL     Si2985     2985    0.00000000   28.085499
  2986     UF_Si      1      MOL     Si2986     2986    0.00000000   28.085499
  2987     UF_Si      1      MOL     Si2987     2987    0.00000000   28.085499
  2988     UF_Si      1      MOL     Si2988     2988    0.00000000   28.085499
  2989     UF_Si      1      MOL     Si2989     2989    0.00000000   28.085499
  2990     UF_Si      1      MOL     Si2990     2990    0.00000000   28.085499
  2991     UF_Si      1      MOL     Si2991     2991    0.00000000   28.085499
  2992     UF_Si      1      MOL     Si2992     2992    0.00000000   28.085499
  2993     UF_Si      1      MOL     Si2993     2993    0.00000000   28.085499
  2994     UF_Si      1      MOL     Si2994     2994    0.00000000   28.085499
  2995     os         1      MOL     O2995      2995    0.00000000   15.999405
  2996     os         1      MOL     O2996      2996    0.00000000   15.999405
  2997     os         1      MOL     O2997      2997    0.00000000   15.999405
  2998     os         1      MOL     O2998      2998    0.00000000   15.999405
  2999     os         1      MOL     O2999      2999    0.00000000   15.999405
  3000     os         1      MOL     O3000      3000    0.00000000   15.999405
  3001     os         1      MOL     O3001      3001    0.00000000   15.999405
  3002     os         1      MOL     O3002      3002    0.00000000   15.999405
  3003     os         1      MOL     O3003      3003    0.00000000   15.999405
  3004     os         1      MOL     O3004      3004    0.00000000   15.999405
  3005     os         1      MOL     O3005      3005    0.00000000   15.999405
  3006     os         1      MOL     O3006      3006    0.00000000   15.999405
  3007     os         1      MOL     O3007      3007    0.00000000   15.999405
  3008     os         1      MOL     O3008      3008    0.00000000   15.999405
  3009     os         1      MOL     O3009      3009    0.00000000   15.999405
  3010     os         1      MOL     O3010      3010    0.00000000   15.999405
  3011     os         1      MOL     O3011      3011    0.00000000   15.999405
  3012     os         1      MOL     O3012      3012    0.00000000   15.999405
  3013     os         1      MOL     O3013      3013    0.00000000   15.999405
  3014     os         1      MOL     O3014      3014    0.00000000   15.999405
  3015     os         1      MOL     O3015      3015    0.00000000   15.999405
  3016     os         1      MOL     O3016      3016    0.00000000   15.999405
  3017     os         1      MOL     O3017      3017    0.00000000   15.999405
  3018     os         1      MOL     O3018      3018    0.00000000   15.999405
  3019     os         1      MOL     O3019      3019    0.00000000   15.999405
  3020     os         1      MOL     O3020      3020    0.00000000   15.999405
  3021     UF_Si      1      MOL     Si3021     3021    0.00000000   28.085499
  3022     UF_Si      1      MOL     Si3022     3022    0.00000000   28.085499
  3023     UF_Si      1      MOL     Si3023     3023    0.00000000   28.085499
  3024     UF_Si      1      MOL     Si3024     3024    0.00000000   28.085499
  3025     UF_Si      1      MOL     Si3025     3025    0.00000000   28.085499
  3026     UF_Si      1      MOL     Si3026     3026    0.00000000   28.085499
  3027     UF_Si      1      MOL     Si3027     3027    0.00000000   28.085499
  3028     UF_Si      1      MOL     Si3028     3028    0.00000000   28.085499
  3029     UF_Si      1      MOL     Si3029     3029    0.00000000   28.085499
  3030     UF_Si      1      MOL     Si3030     3030    0.00000000   28.085499
  3031     UF_Si      1      MOL     Si3031     3031    0.00000000   28.085499
  3032     UF_Si      1      MOL     Si3032     3032    0.00000000   28.085499
  3033     os         1      MOL     O3033      3033    0.00000000   15.999405
  3034     os         1      MOL     O3034      3034    0.00000000   15.999405
  3035     os         1      MOL     O3035      3035    0.00000000   15.999405
  3036     o          1      MOL     O3036      3036    0.00000000   15.999405
  3037     os         1      MOL     O3037      3037    0.00000000   15.999405
  3038     os         1      MOL     O3038      3038    0.00000000   15.999405
  3039     os         1      MOL     O3039      3039    0.00000000   15.999405
  3040     os         1      MOL     O3040      3040    0.00000000   15.999405
  3041     os         1      MOL     O3041      3041    0.00000000   15.999405
  3042     o          1      MOL     O3042      3042    0.00000000   15.999405
  3043     os         1      MOL     O3043      3043    0.00000000   15.999405
  3044     os         1      MOL     O3044      3044    0.00000000   15.999405
  3045     os         1      MOL     O3045      3045    0.00000000   15.999405
  3046     os         1      MOL     O3046      3046    0.00000000   15.999405
  3047     os         1      MOL     O3047      3047    0.00000000   15.999405
  3048     os         1      MOL     O3048      3048    0.00000000   15.999405
  3049     os         1      MOL     O3049      3049    0.00000000   15.999405
  3050     os         1      MOL     O3050      3050    0.00000000   15.999405
  3051     os         1      MOL     O3051      3051    0.00000000   15.999405
  3052     os         1      MOL     O3052      3052    0.00000000   15.999405
  3053     os         1      MOL     O3053      3053    0.00000000   15.999405
  3054     os         1      MOL     O3054      3054    0.00000000   15.999405
  3055     UF_Si      1      MOL     Si3055     3055    0.00000000   28.085499
  3056     UF_Si      1      MOL     Si3056     3056    0.00000000   28.085499
  3057     UF_Si      1      MOL     Si3057     3057    0.00000000   28.085499
  3058     UF_Si      1      MOL     Si3058     3058    0.00000000   28.085499
  3059     UF_Si      1      MOL     Si3059     3059    0.00000000   28.085499
  3060     UF_Si      1      MOL     Si3060     3060    0.00000000   28.085499
  3061     UF_Si      1      MOL     Si3061     3061    0.00000000   28.085499
  3062     UF_Si      1      MOL     Si3062     3062    0.00000000   28.085499
  3063     UF_Si      1      MOL     Si3063     3063    0.00000000   28.085499
  3064     UF_Si      1      MOL     Si3064     3064    0.00000000   28.085499
  3065     UF_Si      1      MOL     Si3065     3065    0.00000000   28.085499
  3066     UF_Si      1      MOL     Si3066     3066    0.00000000   28.085499
  3067     o          1      MOL     O3067      3067    0.00000000   15.999405
  3068     os         1      MOL     O3068      3068    0.00000000   15.999405
  3069     os         1      MOL     O3069      3069    0.00000000   15.999405
  3070     os         1      MOL     O3070      3070    0.00000000   15.999405
  3071     os         1      MOL     O3071      3071    0.00000000   15.999405
  3072     o          1      MOL     O3072      3072    0.00000000   15.999405
  3073     os         1      MOL     O3073      3073    0.00000000   15.999405
  3074     os         1      MOL     O3074      3074    0.00000000   15.999405
  3075     os         1      MOL     O3075      3075    0.00000000   15.999405
  3076     os         1      MOL     O3076      3076    0.00000000   15.999405
  3077     os         1      MOL     O3077      3077    0.00000000   15.999405
  3078     os         1      MOL     O3078      3078    0.00000000   15.999405
  3079     os         1      MOL     O3079      3079    0.00000000   15.999405
  3080     o          1      MOL     O3080      3080    0.00000000   15.999405
  3081     os         1      MOL     O3081      3081    0.00000000   15.999405
  3082     os         1      MOL     O3082      3082    0.00000000   15.999405
  3083     os         1      MOL     O3083      3083    0.00000000   15.999405
  3084     os         1      MOL     O3084      3084    0.00000000   15.999405
  3085     os         1      MOL     O3085      3085    0.00000000   15.999405
  3086     os         1      MOL     O3086      3086    0.00000000   15.999405
  3087     os         1      MOL     O3087      3087    0.00000000   15.999405
  3088     os         1      MOL     O3088      3088    0.00000000   15.999405
  3089     UF_Si      1      MOL     Si3089     3089    0.00000000   28.085499
  3090     UF_Si      1      MOL     Si3090     3090    0.00000000   28.085499
  3091     UF_Si      1      MOL     Si3091     3091    0.00000000   28.085499
  3092     UF_Si      1      MOL     Si3092     3092    0.00000000   28.085499
  3093     UF_Si      1      MOL     Si3093     3093    0.00000000   28.085499
  3094     UF_Si      1      MOL     Si3094     3094    0.00000000   28.085499
  3095     UF_Si      1      MOL     Si3095     3095    0.00000000   28.085499
  3096     UF_Si      1      MOL     Si3096     3096    0.00000000   28.085499
  3097     UF_Si      1      MOL     Si3097     3097    0.00000000   28.085499
  3098     UF_Si      1      MOL     Si3098     3098    0.00000000   28.085499
  3099     UF_Si      1      MOL     Si3099     3099    0.00000000   28.085499
  3100     UF_Si      1      MOL     Si3100     3100    0.00000000   28.085499
  3101     os         1      MOL     O3101      3101    0.00000000   15.999405
  3102     os         1      MOL     O3102      3102    0.00000000   15.999405
  3103     os         1      MOL     O3103      3103    0.00000000   15.999405
  3104     os         1      MOL     O3104      3104    0.00000000   15.999405
  3105     os         1      MOL     O3105      3105    0.00000000   15.999405
  3106     os         1      MOL     O3106      3106    0.00000000   15.999405
  3107     os         1      MOL     O3107      3107    0.00000000   15.999405
  3108     os         1      MOL     O3108      3108    0.00000000   15.999405
  3109     os         1      MOL     O3109      3109    0.00000000   15.999405
  3110     os         1      MOL     O3110      3110    0.00000000   15.999405
  3111     os         1      MOL     O3111      3111    0.00000000   15.999405
  3112     os         1      MOL     O3112      3112    0.00000000   15.999405
  3113     os         1      MOL     O3113      3113    0.00000000   15.999405
  3114     os         1      MOL     O3114      3114    0.00000000   15.999405
  3115     os         1      MOL     O3115      3115    0.00000000   15.999405
  3116     o          1      MOL     O3116      3116    0.00000000   15.999405
  3117     os         1      MOL     O3117      3117    0.00000000   15.999405
  3118     os         1      MOL     O3118      3118    0.00000000   15.999405
  3119     os         1      MOL     O3119      3119    0.00000000   15.999405
  3120     os         1      MOL     O3120      3120    0.00000000   15.999405
  3121     os         1      MOL     O3121      3121    0.00000000   15.999405
  3122     os         1      MOL     O3122      3122    0.00000000   15.999405
  3123     UF_Si      1      MOL     Si3123     3123    0.00000000   28.085499
  3124     UF_Si      1      MOL     Si3124     3124    0.00000000   28.085499
  3125     UF_Si      1      MOL     Si3125     3125    0.00000000   28.085499
  3126     UF_Si      1      MOL     Si3126     3126    0.00000000   28.085499
  3127     UF_Si      1      MOL     Si3127     3127    0.00000000   28.085499
  3128     UF_Si      1      MOL     Si3128     3128    0.00000000   28.085499
  3129     UF_Si      1      MOL     Si3129     3129    0.00000000   28.085499
  3130     UF_Si      1      MOL     Si3130     3130    0.00000000   28.085499
  3131     UF_Si      1      MOL     Si3131     3131    0.00000000   28.085499
  3132     UF_Si      1      MOL     Si3132     3132    0.00000000   28.085499
  3133     UF_Si      1      MOL     Si3133     3133    0.00000000   28.085499
  3134     UF_Si      1      MOL     Si3134     3134    0.00000000   28.085499
  3135     os         1      MOL     O3135      3135    0.00000000   15.999405
  3136     os         1      MOL     O3136      3136    0.00000000   15.999405
  3137     os         1      MOL     O3137      3137    0.00000000   15.999405
  3138     os         1      MOL     O3138      3138    0.00000000   15.999405
  3139     os         1      MOL     O3139      3139    0.00000000   15.999405
  3140     os         1      MOL     O3140      3140    0.00000000   15.999405
  3141     os         1      MOL     O3141      3141    0.00000000   15.999405
  3142     os         1      MOL     O3142      3142    0.00000000   15.999405
  3143     os         1      MOL     O3143      3143    0.00000000   15.999405
  3144     os         1      MOL     O3144      3144    0.00000000   15.999405
  3145     os         1      MOL     O3145      3145    0.00000000   15.999405
  3146     os         1      MOL     O3146      3146    0.00000000   15.999405
  3147     os         1      MOL     O3147      3147    0.00000000   15.999405
  3148     os         1      MOL     O3148      3148    0.00000000   15.999405
  3149     os         1      MOL     O3149      3149    0.00000000   15.999405
  3150     os         1      MOL     O3150      3150    0.00000000   15.999405
  3151     os         1      MOL     O3151      3151    0.00000000   15.999405
  3152     os         1      MOL     O3152      3152    0.00000000   15.999405
  3153     os         1      MOL     O3153      3153    0.00000000   15.999405
  3154     os         1      MOL     O3154      3154    0.00000000   15.999405
  3155     os         1      MOL     O3155      3155    0.00000000   15.999405
  3156     os         1      MOL     O3156      3156    0.00000000   15.999405
  3157     UF_Si      1      MOL     Si3157     3157    0.00000000   28.085499
  3158     UF_Si      1      MOL     Si3158     3158    0.00000000   28.085499
  3159     UF_Si      1      MOL     Si3159     3159    0.00000000   28.085499
  3160     UF_Si      1      MOL     Si3160     3160    0.00000000   28.085499
  3161     UF_Si      1      MOL     Si3161     3161    0.00000000   28.085499
  3162     UF_Si      1      MOL     Si3162     3162    0.00000000   28.085499
  3163     UF_Si      1      MOL     Si3163     3163    0.00000000   28.085499
  3164     UF_Si      1      MOL     Si3164     3164    0.00000000   28.085499
  3165     UF_Si      1      MOL     Si3165     3165    0.00000000   28.085499
  3166     UF_Si      1      MOL     Si3166     3166    0.00000000   28.085499
  3167     UF_Si      1      MOL     Si3167     3167    0.00000000   28.085499
  3168     UF_Si      1      MOL     Si3168     3168    0.00000000   28.085499
  3169     os         1      MOL     O3169      3169    0.00000000   15.999405
  3170     os         1      MOL     O3170      3170    0.00000000   15.999405
  3171     os         1      MOL     O3171      3171    0.00000000   15.999405
  3172     os         1      MOL     O3172      3172    0.00000000   15.999405
  3173     o          1      MOL     O3173      3173    0.00000000   15.999405
  3174     o          1      MOL     O3174      3174    0.00000000   15.999405
  3175     os         1      MOL     O3175      3175    0.00000000   15.999405
  3176     os         1      MOL     O3176      3176    0.00000000   15.999405
  3177     os         1      MOL     O3177      3177    0.00000000   15.999405
  3178     os         1      MOL     O3178      3178    0.00000000   15.999405
  3179     os         1      MOL     O3179      3179    0.00000000   15.999405
  3180     o          1      MOL     O3180      3180    0.00000000   15.999405
  3181     os         1      MOL     O3181      3181    0.00000000   15.999405
  3182     o          1      MOL     O3182      3182    0.00000000   15.999405
  3183     os         1      MOL     O3183      3183    0.00000000   15.999405
  3184     os         1      MOL     O3184      3184    0.00000000   15.999405
  3185     os         1      MOL     O3185      3185    0.00000000   15.999405
  3186     os         1      MOL     O3186      3186    0.00000000   15.999405
  3187     o          1      MOL     O3187      3187    0.00000000   15.999405
  3188     os         1      MOL     O3188      3188    0.00000000   15.999405
  3189     os         1      MOL     O3189      3189    0.00000000   15.999405
  3190     os         1      MOL     O3190      3190    0.00000000   15.999405
  3191     os         1      MOL     O3191      3191    0.00000000   15.999405
  3192     o          1      MOL     O3192      3192    0.00000000   15.999405
  3193     os         1      MOL     O3193      3193    0.00000000   15.999405
  3194     os         1      MOL     O3194      3194    0.00000000   15.999405
  3195     UF_Si      1      MOL     Si3195     3195    0.00000000   28.085499
  3196     UF_Si      1      MOL     Si3196     3196    0.00000000   28.085499
  3197     UF_Si      1      MOL     Si3197     3197    0.00000000   28.085499
  3198     UF_Si      1      MOL     Si3198     3198    0.00000000   28.085499
  3199     UF_Si      1      MOL     Si3199     3199    0.00000000   28.085499
  3200     UF_Si      1      MOL     Si3200     3200    0.00000000   28.085499
  3201     UF_Si      1      MOL     Si3201     3201    0.00000000   28.085499
  3202     UF_Si      1      MOL     Si3202     3202    0.00000000   28.085499
  3203     UF_Si      1      MOL     Si3203     3203    0.00000000   28.085499
  3204     UF_Si      1      MOL     Si3204     3204    0.00000000   28.085499
  3205     UF_Si      1      MOL     Si3205     3205    0.00000000   28.085499
  3206     UF_Si      1      MOL     Si3206     3206    0.00000000   28.085499
  3207     os         1      MOL     O3207      3207    0.00000000   15.999405
  3208     os         1      MOL     O3208      3208    0.00000000   15.999405
  3209     os         1      MOL     O3209      3209    0.00000000   15.999405
  3210     o          1      MOL     O3210      3210    0.00000000   15.999405
  3211     os         1      MOL     O3211      3211    0.00000000   15.999405
  3212     os         1      MOL     O3212      3212    0.00000000   15.999405
  3213     os         1      MOL     O3213      3213    0.00000000   15.999405
  3214     os         1      MOL     O3214      3214    0.00000000   15.999405
  3215     os         1      MOL     O3215      3215    0.00000000   15.999405
  3216     o          1      MOL     O3216      3216    0.00000000   15.999405
  3217     os         1      MOL     O3217      3217    0.00000000   15.999405
  3218     os         1      MOL     O3218      3218    0.00000000   15.999405
  3219     os         1      MOL     O3219      3219    0.00000000   15.999405
  3220     os         1      MOL     O3220      3220    0.00000000   15.999405
  3221     os         1      MOL     O3221      3221    0.00000000   15.999405
  3222     o          1      MOL     O3222      3222    0.00000000   15.999405
  3223     os         1      MOL     O3223      3223    0.00000000   15.999405
  3224     os         1      MOL     O3224      3224    0.00000000   15.999405
  3225     os         1      MOL     O3225      3225    0.00000000   15.999405
  3226     os         1      MOL     O3226      3226    0.00000000   15.999405
  3227     os         1      MOL     O3227      3227    0.00000000   15.999405
  3228     os         1      MOL     O3228      3228    0.00000000   15.999405
  3229     os         1      MOL     O3229      3229    0.00000000   15.999405
  3230     os         1      MOL     O3230      3230    0.00000000   15.999405
  3231     os         1      MOL     O3231      3231    0.00000000   15.999405
  3232     os         1      MOL     O3232      3232    0.00000000   15.999405
  3233     UF_Si      1      MOL     Si3233     3233    0.00000000   28.085499
  3234     UF_Si      1      MOL     Si3234     3234    0.00000000   28.085499
  3235     UF_Si      1      MOL     Si3235     3235    0.00000000   28.085499
  3236     UF_Si      1      MOL     Si3236     3236    0.00000000   28.085499
  3237     UF_Si      1      MOL     Si3237     3237    0.00000000   28.085499
  3238     UF_Si      1      MOL     Si3238     3238    0.00000000   28.085499
  3239     UF_Si      1      MOL     Si3239     3239    0.00000000   28.085499
  3240     UF_Si      1      MOL     Si3240     3240    0.00000000   28.085499
  3241     UF_Si      1      MOL     Si3241     3241    0.00000000   28.085499
  3242     UF_Si      1      MOL     Si3242     3242    0.00000000   28.085499
  3243     UF_Si      1      MOL     Si3243     3243    0.00000000   28.085499
  3244     UF_Si      1      MOL     Si3244     3244    0.00000000   28.085499
  3245     o          1      MOL     O3245      3245    0.00000000   15.999405
  3246     os         1      MOL     O3246      3246    0.00000000   15.999405
  3247     os         1      MOL     O3247      3247    0.00000000   15.999405
  3248     os         1      MOL     O3248      3248    0.00000000   15.999405
  3249     os         1      MOL     O3249      3249    0.00000000   15.999405
  3250     os         1      MOL     O3250      3250    0.00000000   15.999405
  3251     os         1      MOL     O3251      3251    0.00000000   15.999405
  3252     os         1      MOL     O3252      3252    0.00000000   15.999405
  3253     os         1      MOL     O3253      3253    0.00000000   15.999405
  3254     os         1      MOL     O3254      3254    0.00000000   15.999405
  3255     os         1      MOL     O3255      3255    0.00000000   15.999405
  3256     os         1      MOL     O3256      3256    0.00000000   15.999405
  3257     os         1      MOL     O3257      3257    0.00000000   15.999405
  3258     os         1      MOL     O3258      3258    0.00000000   15.999405
  3259     os         1      MOL     O3259      3259    0.00000000   15.999405
  3260     os         1      MOL     O3260      3260    0.00000000   15.999405
  3261     os         1      MOL     O3261      3261    0.00000000   15.999405
  3262     os         1      MOL     O3262      3262    0.00000000   15.999405
  3263     os         1      MOL     O3263      3263    0.00000000   15.999405
  3264     os         1      MOL     O3264      3264    0.00000000   15.999405
  3265     os         1      MOL     O3265      3265    0.00000000   15.999405
  3266     os         1      MOL     O3266      3266    0.00000000   15.999405
  3267     os         1      MOL     O3267      3267    0.00000000   15.999405
  3268     os         1      MOL     O3268      3268    0.00000000   15.999405
  3269     os         1      MOL     O3269      3269    0.00000000   15.999405
  3270     os         1      MOL     O3270      3270    0.00000000   15.999405
  3271     UF_Si      1      MOL     Si3271     3271    0.00000000   28.085499
  3272     UF_Si      1      MOL     Si3272     3272    0.00000000   28.085499
  3273     UF_Si      1      MOL     Si3273     3273    0.00000000   28.085499
  3274     UF_Si      1      MOL     Si3274     3274    0.00000000   28.085499
  3275     UF_Si      1      MOL     Si3275     3275    0.00000000   28.085499
  3276     UF_Si      1      MOL     Si3276     3276    0.00000000   28.085499
  3277     UF_Si      1      MOL     Si3277     3277    0.00000000   28.085499
  3278     UF_Si      1      MOL     Si3278     3278    0.00000000   28.085499
  3279     UF_Si      1      MOL     Si3279     3279    0.00000000   28.085499
  3280     UF_Si      1      MOL     Si3280     3280    0.00000000   28.085499
  3281     UF_Si      1      MOL     Si3281     3281    0.00000000   28.085499
  3282     UF_Si      1      MOL     Si3282     3282    0.00000000   28.085499
  3283     os         1      MOL     O3283      3283    0.00000000   15.999405
  3284     os         1      MOL     O3284      3284    0.00000000   15.999405
  3285     os         1      MOL     O3285      3285    0.00000000   15.999405
  3286     os         1      MOL     O3286      3286    0.00000000   15.999405
  3287     os         1      MOL     O3287      3287    0.00000000   15.999405
  3288     os         1      MOL     O3288      3288    0.00000000   15.999405
  3289     os         1      MOL     O3289      3289    0.00000000   15.999405
  3290     os         1      MOL     O3290      3290    0.00000000   15.999405
  3291     os         1      MOL     O3291      3291    0.00000000   15.999405
  3292     os         1      MOL     O3292      3292    0.00000000   15.999405
  3293     os         1      MOL     O3293      3293    0.00000000   15.999405
  3294     os         1      MOL     O3294      3294    0.00000000   15.999405
  3295     os         1      MOL     O3295      3295    0.00000000   15.999405
  3296     os         1      MOL     O3296      3296    0.00000000   15.999405
  3297     os         1      MOL     O3297      3297    0.00000000   15.999405
  3298     os         1      MOL     O3298      3298    0.00000000   15.999405
  3299     os         1      MOL     O3299      3299    0.00000000   15.999405
  3300     os         1      MOL     O3300      3300    0.00000000   15.999405
  3301     os         1      MOL     O3301      3301    0.00000000   15.999405
  3302     os         1      MOL     O3302      3302    0.00000000   15.999405
  3303     os         1      MOL     O3303      3303    0.00000000   15.999405
  3304     os         1      MOL     O3304      3304    0.00000000   15.999405
  3305     os         1      MOL     O3305      3305    0.00000000   15.999405
  3306     os         1      MOL     O3306      3306    0.00000000   15.999405
  3307     os         1      MOL     O3307      3307    0.00000000   15.999405
  3308     os         1      MOL     O3308      3308    0.00000000   15.999405
  3309     UF_Si      1      MOL     Si3309     3309    0.00000000   28.085499
  3310     UF_Si      1      MOL     Si3310     3310    0.00000000   28.085499
  3311     UF_Si      1      MOL     Si3311     3311    0.00000000   28.085499
  3312     UF_Si      1      MOL     Si3312     3312    0.00000000   28.085499
  3313     UF_Si      1      MOL     Si3313     3313    0.00000000   28.085499
  3314     UF_Si      1      MOL     Si3314     3314    0.00000000   28.085499
  3315     UF_Si      1      MOL     Si3315     3315    0.00000000   28.085499
  3316     UF_Si      1      MOL     Si3316     3316    0.00000000   28.085499
  3317     UF_Si      1      MOL     Si3317     3317    0.00000000   28.085499
  3318     UF_Si      1      MOL     Si3318     3318    0.00000000   28.085499
  3319     UF_Si      1      MOL     Si3319     3319    0.00000000   28.085499
  3320     UF_Si      1      MOL     Si3320     3320    0.00000000   28.085499
  3321     os         1      MOL     O3321      3321    0.00000000   15.999405
  3322     os         1      MOL     O3322      3322    0.00000000   15.999405
  3323     os         1      MOL     O3323      3323    0.00000000   15.999405
  3324     o          1      MOL     O3324      3324    0.00000000   15.999405
  3325     os         1      MOL     O3325      3325    0.00000000   15.999405
  3326     os         1      MOL     O3326      3326    0.00000000   15.999405
  3327     os         1      MOL     O3327      3327    0.00000000   15.999405
  3328     os         1      MOL     O3328      3328    0.00000000   15.999405
  3329     os         1      MOL     O3329      3329    0.00000000   15.999405
  3330     o          1      MOL     O3330      3330    0.00000000   15.999405
  3331     os         1      MOL     O3331      3331    0.00000000   15.999405
  3332     os         1      MOL     O3332      3332    0.00000000   15.999405
  3333     os         1      MOL     O3333      3333    0.00000000   15.999405
  3334     os         1      MOL     O3334      3334    0.00000000   15.999405
  3335     os         1      MOL     O3335      3335    0.00000000   15.999405
  3336     os         1      MOL     O3336      3336    0.00000000   15.999405
  3337     os         1      MOL     O3337      3337    0.00000000   15.999405
  3338     os         1      MOL     O3338      3338    0.00000000   15.999405
  3339     os         1      MOL     O3339      3339    0.00000000   15.999405
  3340     os         1      MOL     O3340      3340    0.00000000   15.999405
  3341     os         1      MOL     O3341      3341    0.00000000   15.999405
  3342     os         1      MOL     O3342      3342    0.00000000   15.999405
  3343     UF_Si      1      MOL     Si3343     3343    0.00000000   28.085499
  3344     UF_Si      1      MOL     Si3344     3344    0.00000000   28.085499
  3345     UF_Si      1      MOL     Si3345     3345    0.00000000   28.085499
  3346     UF_Si      1      MOL     Si3346     3346    0.00000000   28.085499
  3347     UF_Si      1      MOL     Si3347     3347    0.00000000   28.085499
  3348     UF_Si      1      MOL     Si3348     3348    0.00000000   28.085499
  3349     UF_Si      1      MOL     Si3349     3349    0.00000000   28.085499
  3350     UF_Si      1      MOL     Si3350     3350    0.00000000   28.085499
  3351     UF_Si      1      MOL     Si3351     3351    0.00000000   28.085499
  3352     UF_Si      1      MOL     Si3352     3352    0.00000000   28.085499
  3353     UF_Si      1      MOL     Si3353     3353    0.00000000   28.085499
  3354     UF_Si      1      MOL     Si3354     3354    0.00000000   28.085499
  3355     o          1      MOL     O3355      3355    0.00000000   15.999405
  3356     os         1      MOL     O3356      3356    0.00000000   15.999405
  3357     os         1      MOL     O3357      3357    0.00000000   15.999405
  3358     os         1      MOL     O3358      3358    0.00000000   15.999405
  3359     os         1      MOL     O3359      3359    0.00000000   15.999405
  3360     o          1      MOL     O3360      3360    0.00000000   15.999405
  3361     os         1      MOL     O3361      3361    0.00000000   15.999405
  3362     os         1      MOL     O3362      3362    0.00000000   15.999405
  3363     os         1      MOL     O3363      3363    0.00000000   15.999405
  3364     os         1      MOL     O3364      3364    0.00000000   15.999405
  3365     os         1      MOL     O3365      3365    0.00000000   15.999405
  3366     os         1      MOL     O3366      3366    0.00000000   15.999405
  3367     os         1      MOL     O3367      3367    0.00000000   15.999405
  3368     o          1      MOL     O3368      3368    0.00000000   15.999405
  3369     os         1      MOL     O3369      3369    0.00000000   15.999405
  3370     os         1      MOL     O3370      3370    0.00000000   15.999405
  3371     os         1      MOL     O3371      3371    0.00000000   15.999405
  3372     os         1      MOL     O3372      3372    0.00000000   15.999405
  3373     os         1      MOL     O3373      3373    0.00000000   15.999405
  3374     os         1      MOL     O3374      3374    0.00000000   15.999405
  3375     os         1      MOL     O3375      3375    0.00000000   15.999405
  3376     os         1      MOL     O3376      3376    0.00000000   15.999405
  3377     UF_Si      1      MOL     Si3377     3377    0.00000000   28.085499
  3378     UF_Si      1      MOL     Si3378     3378    0.00000000   28.085499
  3379     UF_Si      1      MOL     Si3379     3379    0.00000000   28.085499
  3380     UF_Si      1      MOL     Si3380     3380    0.00000000   28.085499
  3381     UF_Si      1      MOL     Si3381     3381    0.00000000   28.085499
  3382     UF_Si      1      MOL     Si3382     3382    0.00000000   28.085499
  3383     UF_Si      1      MOL     Si3383     3383    0.00000000   28.085499
  3384     UF_Si      1      MOL     Si3384     3384    0.00000000   28.085499
  3385     UF_Si      1      MOL     Si3385     3385    0.00000000   28.085499
  3386     UF_Si      1      MOL     Si3386     3386    0.00000000   28.085499
  3387     UF_Si      1      MOL     Si3387     3387    0.00000000   28.085499
  3388     UF_Si      1      MOL     Si3388     3388    0.00000000   28.085499
  3389     os         1      MOL     O3389      3389    0.00000000   15.999405
  3390     os         1      MOL     O3390      3390    0.00000000   15.999405
  3391     os         1      MOL     O3391      3391    0.00000000   15.999405
  3392     os         1      MOL     O3392      3392    0.00000000   15.999405
  3393     os         1      MOL     O3393      3393    0.00000000   15.999405
  3394     os         1      MOL     O3394      3394    0.00000000   15.999405
  3395     os         1      MOL     O3395      3395    0.00000000   15.999405
  3396     os         1      MOL     O3396      3396    0.00000000   15.999405
  3397     os         1      MOL     O3397      3397    0.00000000   15.999405
  3398     os         1      MOL     O3398      3398    0.00000000   15.999405
  3399     os         1      MOL     O3399      3399    0.00000000   15.999405
  3400     os         1      MOL     O3400      3400    0.00000000   15.999405
  3401     os         1      MOL     O3401      3401    0.00000000   15.999405
  3402     os         1      MOL     O3402      3402    0.00000000   15.999405
  3403     os         1      MOL     O3403      3403    0.00000000   15.999405
  3404     o          1      MOL     O3404      3404    0.00000000   15.999405
  3405     os         1      MOL     O3405      3405    0.00000000   15.999405
  3406     os         1      MOL     O3406      3406    0.00000000   15.999405
  3407     os         1      MOL     O3407      3407    0.00000000   15.999405
  3408     os         1      MOL     O3408      3408    0.00000000   15.999405
  3409     os         1      MOL     O3409      3409    0.00000000   15.999405
  3410     os         1      MOL     O3410      3410    0.00000000   15.999405
  3411     UF_Si      1      MOL     Si3411     3411    0.00000000   28.085499
  3412     UF_Si      1      MOL     Si3412     3412    0.00000000   28.085499
  3413     UF_Si      1      MOL     Si3413     3413    0.00000000   28.085499
  3414     UF_Si      1      MOL     Si3414     3414    0.00000000   28.085499
  3415     UF_Si      1      MOL     Si3415     3415    0.00000000   28.085499
  3416     UF_Si      1      MOL     Si3416     3416    0.00000000   28.085499
  3417     UF_Si      1      MOL     Si3417     3417    0.00000000   28.085499
  3418     UF_Si      1      MOL     Si3418     3418    0.00000000   28.085499
  3419     UF_Si      1      MOL     Si3419     3419    0.00000000   28.085499
  3420     UF_Si      1      MOL     Si3420     3420    0.00000000   28.085499
  3421     UF_Si      1      MOL     Si3421     3421    0.00000000   28.085499
  3422     UF_Si      1      MOL     Si3422     3422    0.00000000   28.085499
  3423     os         1      MOL     O3423      3423    0.00000000   15.999405
  3424     os         1      MOL     O3424      3424    0.00000000   15.999405
  3425     os         1      MOL     O3425      3425    0.00000000   15.999405
  3426     os         1      MOL     O3426      3426    0.00000000   15.999405
  3427     o          1      MOL     O3427      3427    0.00000000   15.999405
  3428     os         1      MOL     O3428      3428    0.00000000   15.999405
  3429     os         1      MOL     O3429      3429    0.00000000   15.999405
  3430     os         1      MOL     O3430      3430    0.00000000   15.999405
  3431     os         1      MOL     O3431      3431    0.00000000   15.999405
  3432     os         1      MOL     O3432      3432    0.00000000   15.999405
  3433     os         1      MOL     O3433      3433    0.00000000   15.999405
  3434     o          1      MOL     O3434      3434    0.00000000   15.999405
  3435     os         1      MOL     O3435      3435    0.00000000   15.999405
  3436     os         1      MOL     O3436      3436    0.00000000   15.999405
  3437     os         1      MOL     O3437      3437    0.00000000   15.999405
  3438     os         1      MOL     O3438      3438    0.00000000   15.999405
  3439     os         1      MOL     O3439      3439    0.00000000   15.999405
  3440     o          1      MOL     O3440      3440    0.00000000   15.999405
  3441     os         1      MOL     O3441      3441    0.00000000   15.999405
  3442     os         1      MOL     O3442      3442    0.00000000   15.999405
  3443     o          1      MOL     O3443      3443    0.00000000   15.999405
  3444     os         1      MOL     O3444      3444    0.00000000   15.999405
  3445     UF_Si      1      MOL     Si3445     3445    0.00000000   28.085499
  3446     UF_Si      1      MOL     Si3446     3446    0.00000000   28.085499
  3447     UF_Si      1      MOL     Si3447     3447    0.00000000   28.085499
  3448     UF_Si      1      MOL     Si3448     3448    0.00000000   28.085499
  3449     UF_Si      1      MOL     Si3449     3449    0.00000000   28.085499
  3450     UF_Si      1      MOL     Si3450     3450    0.00000000   28.085499
  3451     UF_Si      1      MOL     Si3451     3451    0.00000000   28.085499
  3452     UF_Si      1      MOL     Si3452     3452    0.00000000   28.085499
  3453     UF_Si      1      MOL     Si3453     3453    0.00000000   28.085499
  3454     UF_Si      1      MOL     Si3454     3454    0.00000000   28.085499
  3455     UF_Si      1      MOL     Si3455     3455    0.00000000   28.085499
  3456     UF_Si      1      MOL     Si3456     3456    0.00000000   28.085499
  3457     os         1      MOL     O3457      3457    0.00000000   15.999405
  3458     os         1      MOL     O3458      3458    0.00000000   15.999405
  3459     os         1      MOL     O3459      3459    0.00000000   15.999405
  3460     o          1      MOL     O3460      3460    0.00000000   15.999405
  3461     os         1      MOL     O3461      3461    0.00000000   15.999405
  3462     os         1      MOL     O3462      3462    0.00000000   15.999405
  3463     os         1      MOL     O3463      3463    0.00000000   15.999405
  3464     os         1      MOL     O3464      3464    0.00000000   15.999405
  3465     os         1      MOL     O3465      3465    0.00000000   15.999405
  3466     o          1      MOL     O3466      3466    0.00000000   15.999405
  3467     os         1      MOL     O3467      3467    0.00000000   15.999405
  3468     os         1      MOL     O3468      3468    0.00000000   15.999405
  3469     os         1      MOL     O3469      3469    0.00000000   15.999405
  3470     os         1      MOL     O3470      3470    0.00000000   15.999405
  3471     os         1      MOL     O3471      3471    0.00000000   15.999405
  3472     os         1      MOL     O3472      3472    0.00000000   15.999405
  3473     os         1      MOL     O3473      3473    0.00000000   15.999405
  3474     os         1      MOL     O3474      3474    0.00000000   15.999405
  3475     os         1      MOL     O3475      3475    0.00000000   15.999405
  3476     os         1      MOL     O3476      3476    0.00000000   15.999405
  3477     os         1      MOL     O3477      3477    0.00000000   15.999405
  3478     os         1      MOL     O3478      3478    0.00000000   15.999405
  3479     os         1      MOL     O3479      3479    0.00000000   15.999405
  3480     os         1      MOL     O3480      3480    0.00000000   15.999405
  3481     os         1      MOL     O3481      3481    0.00000000   15.999405
  3482     os         1      MOL     O3482      3482    0.00000000   15.999405
  3483     UF_Si      1      MOL     Si3483     3483    0.00000000   28.085499
  3484     UF_Si      1      MOL     Si3484     3484    0.00000000   28.085499
  3485     UF_Si      1      MOL     Si3485     3485    0.00000000   28.085499
  3486     UF_Si      1      MOL     Si3486     3486    0.00000000   28.085499
  3487     UF_Si      1      MOL     Si3487     3487    0.00000000   28.085499
  3488     UF_Si      1      MOL     Si3488     3488    0.00000000   28.085499
  3489     UF_Si      1      MOL     Si3489     3489    0.00000000   28.085499
  3490     UF_Si      1      MOL     Si3490     3490    0.00000000   28.085499
  3491     UF_Si      1      MOL     Si3491     3491    0.00000000   28.085499
  3492     UF_Si      1      MOL     Si3492     3492    0.00000000   28.085499
  3493     UF_Si      1      MOL     Si3493     3493    0.00000000   28.085499
  3494     UF_Si      1      MOL     Si3494     3494    0.00000000   28.085499
  3495     o          1      MOL     O3495      3495    0.00000000   15.999405
  3496     os         1      MOL     O3496      3496    0.00000000   15.999405
  3497     os         1      MOL     O3497      3497    0.00000000   15.999405
  3498     os         1      MOL     O3498      3498    0.00000000   15.999405
  3499     os         1      MOL     O3499      3499    0.00000000   15.999405
  3500     o          1      MOL     O3500      3500    0.00000000   15.999405
  3501     os         1      MOL     O3501      3501    0.00000000   15.999405
  3502     os         1      MOL     O3502      3502    0.00000000   15.999405
  3503     os         1      MOL     O3503      3503    0.00000000   15.999405
  3504     os         1      MOL     O3504      3504    0.00000000   15.999405
  3505     os         1      MOL     O3505      3505    0.00000000   15.999405
  3506     os         1      MOL     O3506      3506    0.00000000   15.999405
  3507     os         1      MOL     O3507      3507    0.00000000   15.999405
  3508     o          1      MOL     O3508      3508    0.00000000   15.999405
  3509     os         1      MOL     O3509      3509    0.00000000   15.999405
  3510     os         1      MOL     O3510      3510    0.00000000   15.999405
  3511     os         1      MOL     O3511      3511    0.00000000   15.999405
  3512     os         1      MOL     O3512      3512    0.00000000   15.999405
  3513     os         1      MOL     O3513      3513    0.00000000   15.999405
  3514     os         1      MOL     O3514      3514    0.00000000   15.999405
  3515     os         1      MOL     O3515      3515    0.00000000   15.999405
  3516     os         1      MOL     O3516      3516    0.00000000   15.999405
  3517     os         1      MOL     O3517      3517    0.00000000   15.999405
  3518     os         1      MOL     O3518      3518    0.00000000   15.999405
  3519     os         1      MOL     O3519      3519    0.00000000   15.999405
  3520     os         1      MOL     O3520      3520    0.00000000   15.999405
  3521     UF_Si      1      MOL     Si3521     3521    0.00000000   28.085499
  3522     UF_Si      1      MOL     Si3522     3522    0.00000000   28.085499
  3523     UF_Si      1      MOL     Si3523     3523    0.00000000   28.085499
  3524     UF_Si      1      MOL     Si3524     3524    0.00000000   28.085499
  3525     UF_Si      1      MOL     Si3525     3525    0.00000000   28.085499
  3526     UF_Si      1      MOL     Si3526     3526    0.00000000   28.085499
  3527     UF_Si      1      MOL     Si3527     3527    0.00000000   28.085499
  3528     UF_Si      1      MOL     Si3528     3528    0.00000000   28.085499
  3529     UF_Si      1      MOL     Si3529     3529    0.00000000   28.085499
  3530     UF_Si      1      MOL     Si3530     3530    0.00000000   28.085499
  3531     UF_Si      1      MOL     Si3531     3531    0.00000000   28.085499
  3532     UF_Si      1      MOL     Si3532     3532    0.00000000   28.085499
  3533     os         1      MOL     O3533      3533    0.00000000   15.999405
  3534     os         1      MOL     O3534      3534    0.00000000   15.999405
  3535     os         1      MOL     O3535      3535    0.00000000   15.999405
  3536     os         1      MOL     O3536      3536    0.00000000   15.999405
  3537     os         1      MOL     O3537      3537    0.00000000   15.999405
  3538     os         1      MOL     O3538      3538    0.00000000   15.999405
  3539     os         1      MOL     O3539      3539    0.00000000   15.999405
  3540     os         1      MOL     O3540      3540    0.00000000   15.999405
  3541     os         1      MOL     O3541      3541    0.00000000   15.999405
  3542     os         1      MOL     O3542      3542    0.00000000   15.999405
  3543     os         1      MOL     O3543      3543    0.00000000   15.999405
  3544     os         1      MOL     O3544      3544    0.00000000   15.999405
  3545     os         1      MOL     O3545      3545    0.00000000   15.999405
  3546     os         1      MOL     O3546      3546    0.00000000   15.999405
  3547     os         1      MOL     O3547      3547    0.00000000   15.999405
  3548     o          1      MOL     O3548      3548    0.00000000   15.999405
  3549     os         1      MOL     O3549      3549    0.00000000   15.999405
  3550     os         1      MOL     O3550      3550    0.00000000   15.999405
  3551     os         1      MOL     O3551      3551    0.00000000   15.999405
  3552     os         1      MOL     O3552      3552    0.00000000   15.999405
  3553     os         1      MOL     O3553      3553    0.00000000   15.999405
  3554     os         1      MOL     O3554      3554    0.00000000   15.999405
  3555     os         1      MOL     O3555      3555    0.00000000   15.999405
  3556     os         1      MOL     O3556      3556    0.00000000   15.999405
  3557     os         1      MOL     O3557      3557    0.00000000   15.999405
  3558     os         1      MOL     O3558      3558    0.00000000   15.999405
  3559     UF_Si      1      MOL     Si3559     3559    0.00000000   28.085499
  3560     UF_Si      1      MOL     Si3560     3560    0.00000000   28.085499
  3561     UF_Si      1      MOL     Si3561     3561    0.00000000   28.085499
  3562     UF_Si      1      MOL     Si3562     3562    0.00000000   28.085499
  3563     UF_Si      1      MOL     Si3563     3563    0.00000000   28.085499
  3564     UF_Si      1      MOL     Si3564     3564    0.00000000   28.085499
  3565     UF_Si      1      MOL     Si3565     3565    0.00000000   28.085499
  3566     UF_Si      1      MOL     Si3566     3566    0.00000000   28.085499
  3567     UF_Si      1      MOL     Si3567     3567    0.00000000   28.085499
  3568     UF_Si      1      MOL     Si3568     3568    0.00000000   28.085499
  3569     UF_Si      1      MOL     Si3569     3569    0.00000000   28.085499
  3570     UF_Si      1      MOL     Si3570     3570    0.00000000   28.085499
  3571     os         1      MOL     O3571      3571    0.00000000   15.999405
  3572     os         1      MOL     O3572      3572    0.00000000   15.999405
  3573     os         1      MOL     O3573      3573    0.00000000   15.999405
  3574     os         1      MOL     O3574      3574    0.00000000   15.999405
  3575     o          1      MOL     O3575      3575    0.00000000   15.999405
  3576     os         1      MOL     O3576      3576    0.00000000   15.999405
  3577     os         1      MOL     O3577      3577    0.00000000   15.999405
  3578     os         1      MOL     O3578      3578    0.00000000   15.999405
  3579     os         1      MOL     O3579      3579    0.00000000   15.999405
  3580     os         1      MOL     O3580      3580    0.00000000   15.999405
  3581     os         1      MOL     O3581      3581    0.00000000   15.999405
  3582     o          1      MOL     O3582      3582    0.00000000   15.999405
  3583     os         1      MOL     O3583      3583    0.00000000   15.999405
  3584     os         1      MOL     O3584      3584    0.00000000   15.999405
  3585     os         1      MOL     O3585      3585    0.00000000   15.999405
  3586     os         1      MOL     O3586      3586    0.00000000   15.999405
  3587     os         1      MOL     O3587      3587    0.00000000   15.999405
  3588     os         1      MOL     O3588      3588    0.00000000   15.999405
  3589     o          1      MOL     O3589      3589    0.00000000   15.999405
  3590     os         1      MOL     O3590      3590    0.00000000   15.999405
  3591     os         1      MOL     O3591      3591    0.00000000   15.999405
  3592     os         1      MOL     O3592      3592    0.00000000   15.999405
  3593     os         1      MOL     O3593      3593    0.00000000   15.999405
  3594     o          1      MOL     O3594      3594    0.00000000   15.999405
  3595     os         1      MOL     O3595      3595    0.00000000   15.999405
  3596     os         1      MOL     O3596      3596    0.00000000   15.999405
  3597     UF_Si      1      MOL     Si3597     3597    0.00000000   28.085499
  3598     UF_Si      1      MOL     Si3598     3598    0.00000000   28.085499
  3599     UF_Si      1      MOL     Si3599     3599    0.00000000   28.085499
  3600     UF_Si      1      MOL     Si3600     3600    0.00000000   28.085499
  3601     UF_Si      1      MOL     Si3601     3601    0.00000000   28.085499
  3602     UF_Si      1      MOL     Si3602     3602    0.00000000   28.085499
  3603     UF_Si      1      MOL     Si3603     3603    0.00000000   28.085499
  3604     UF_Si      1      MOL     Si3604     3604    0.00000000   28.085499
  3605     UF_Si      1      MOL     Si3605     3605    0.00000000   28.085499
  3606     UF_Si      1      MOL     Si3606     3606    0.00000000   28.085499
  3607     UF_Si      1      MOL     Si3607     3607    0.00000000   28.085499
  3608     UF_Si      1      MOL     Si3608     3608    0.00000000   28.085499
  3609     os         1      MOL     O3609      3609    0.00000000   15.999405
  3610     os         1      MOL     O3610      3610    0.00000000   15.999405
  3611     os         1      MOL     O3611      3611    0.00000000   15.999405
  3612     os         1      MOL     O3612      3612    0.00000000   15.999405
  3613     o          1      MOL     O3613      3613    0.00000000   15.999405
  3614     o          1      MOL     O3614      3614    0.00000000   15.999405
  3615     os         1      MOL     O3615      3615    0.00000000   15.999405
  3616     os         1      MOL     O3616      3616    0.00000000   15.999405
  3617     os         1      MOL     O3617      3617    0.00000000   15.999405
  3618     os         1      MOL     O3618      3618    0.00000000   15.999405
  3619     os         1      MOL     O3619      3619    0.00000000   15.999405
  3620     o          1      MOL     O3620      3620    0.00000000   15.999405
  3621     os         1      MOL     O3621      3621    0.00000000   15.999405
  3622     o          1      MOL     O3622      3622    0.00000000   15.999405
  3623     os         1      MOL     O3623      3623    0.00000000   15.999405
  3624     os         1      MOL     O3624      3624    0.00000000   15.999405
  3625     os         1      MOL     O3625      3625    0.00000000   15.999405
  3626     o          1      MOL     O3626      3626    0.00000000   15.999405
  3627     os         1      MOL     O3627      3627    0.00000000   15.999405
  3628     os         1      MOL     O3628      3628    0.00000000   15.999405
  3629     o          1      MOL     O3629      3629    0.00000000   15.999405
  3630     os         1      MOL     O3630      3630    0.00000000   15.999405
  3631     UF_Si      1      MOL     Si3631     3631    0.00000000   28.085499
  3632     UF_Si      1      MOL     Si3632     3632    0.00000000   28.085499
  3633     UF_Si      1      MOL     Si3633     3633    0.00000000   28.085499
  3634     UF_Si      1      MOL     Si3634     3634    0.00000000   28.085499
  3635     UF_Si      1      MOL     Si3635     3635    0.00000000   28.085499
  3636     UF_Si      1      MOL     Si3636     3636    0.00000000   28.085499
  3637     UF_Si      1      MOL     Si3637     3637    0.00000000   28.085499
  3638     UF_Si      1      MOL     Si3638     3638    0.00000000   28.085499
  3639     UF_Si      1      MOL     Si3639     3639    0.00000000   28.085499
  3640     UF_Si      1      MOL     Si3640     3640    0.00000000   28.085499
  3641     UF_Si      1      MOL     Si3641     3641    0.00000000   28.085499
  3642     UF_Si      1      MOL     Si3642     3642    0.00000000   28.085499
  3643     os         1      MOL     O3643      3643    0.00000000   15.999405
  3644     os         1      MOL     O3644      3644    0.00000000   15.999405
  3645     os         1      MOL     O3645      3645    0.00000000   15.999405
  3646     o          1      MOL     O3646      3646    0.00000000   15.999405
  3647     os         1      MOL     O3647      3647    0.00000000   15.999405
  3648     os         1      MOL     O3648      3648    0.00000000   15.999405
  3649     os         1      MOL     O3649      3649    0.00000000   15.999405
  3650     os         1      MOL     O3650      3650    0.00000000   15.999405
  3651     os         1      MOL     O3651      3651    0.00000000   15.999405
  3652     o          1      MOL     O3652      3652    0.00000000   15.999405
  3653     os         1      MOL     O3653      3653    0.00000000   15.999405
  3654     os         1      MOL     O3654      3654    0.00000000   15.999405
  3655     os         1      MOL     O3655      3655    0.00000000   15.999405
  3656     os         1      MOL     O3656      3656    0.00000000   15.999405
  3657     os         1      MOL     O3657      3657    0.00000000   15.999405
  3658     o          1      MOL     O3658      3658    0.00000000   15.999405
  3659     os         1      MOL     O3659      3659    0.00000000   15.999405
  3660     os         1      MOL     O3660      3660    0.00000000   15.999405
  3661     os         1      MOL     O3661      3661    0.00000000   15.999405
  3662     os         1      MOL     O3662      3662    0.00000000   15.999405
  3663     os         1      MOL     O3663      3663    0.00000000   15.999405
  3664     os         1      MOL     O3664      3664    0.00000000   15.999405
  3665     UF_Si      1      MOL     Si3665     3665    0.00000000   28.085499
  3666     UF_Si      1      MOL     Si3666     3666    0.00000000   28.085499
  3667     UF_Si      1      MOL     Si3667     3667    0.00000000   28.085499
  3668     UF_Si      1      MOL     Si3668     3668    0.00000000   28.085499
  3669     UF_Si      1      MOL     Si3669     3669    0.00000000   28.085499
  3670     UF_Si      1      MOL     Si3670     3670    0.00000000   28.085499
  3671     UF_Si      1      MOL     Si3671     3671    0.00000000   28.085499
  3672     UF_Si      1      MOL     Si3672     3672    0.00000000   28.085499
  3673     UF_Si      1      MOL     Si3673     3673    0.00000000   28.085499
  3674     UF_Si      1      MOL     Si3674     3674    0.00000000   28.085499
  3675     UF_Si      1      MOL     Si3675     3675    0.00000000   28.085499
  3676     UF_Si      1      MOL     Si3676     3676    0.00000000   28.085499
  3677     o          1      MOL     O3677      3677    0.00000000   15.999405
  3678     os         1      MOL     O3678      3678    0.00000000   15.999405
  3679     os         1      MOL     O3679      3679    0.00000000   15.999405
  3680     os         1      MOL     O3680      3680    0.00000000   15.999405
  3681     os         1      MOL     O3681      3681    0.00000000   15.999405
  3682     os         1      MOL     O3682      3682    0.00000000   15.999405
  3683     os         1      MOL     O3683      3683    0.00000000   15.999405
  3684     os         1      MOL     O3684      3684    0.00000000   15.999405
  3685     os         1      MOL     O3685      3685    0.00000000   15.999405
  3686     os         1      MOL     O3686      3686    0.00000000   15.999405
  3687     os         1      MOL     O3687      3687    0.00000000   15.999405
  3688     os         1      MOL     O3688      3688    0.00000000   15.999405
  3689     os         1      MOL     O3689      3689    0.00000000   15.999405
  3690     os         1      MOL     O3690      3690    0.00000000   15.999405
  3691     os         1      MOL     O3691      3691    0.00000000   15.999405
  3692     os         1      MOL     O3692      3692    0.00000000   15.999405
  3693     os         1      MOL     O3693      3693    0.00000000   15.999405
  3694     os         1      MOL     O3694      3694    0.00000000   15.999405
  3695     os         1      MOL     O3695      3695    0.00000000   15.999405
  3696     os         1      MOL     O3696      3696    0.00000000   15.999405
  3697     os         1      MOL     O3697      3697    0.00000000   15.999405
  3698     os         1      MOL     O3698      3698    0.00000000   15.999405
  3699     UF_Si      1      MOL     Si3699     3699    0.00000000   28.085499
  3700     UF_Si      1      MOL     Si3700     3700    0.00000000   28.085499
  3701     UF_Si      1      MOL     Si3701     3701    0.00000000   28.085499
  3702     UF_Si      1      MOL     Si3702     3702    0.00000000   28.085499
  3703     UF_Si      1      MOL     Si3703     3703    0.00000000   28.085499
  3704     UF_Si      1      MOL     Si3704     3704    0.00000000   28.085499
  3705     UF_Si      1      MOL     Si3705     3705    0.00000000   28.085499
  3706     UF_Si      1      MOL     Si3706     3706    0.00000000   28.085499
  3707     UF_Si      1      MOL     Si3707     3707    0.00000000   28.085499
  3708     UF_Si      1      MOL     Si3708     3708    0.00000000   28.085499
  3709     UF_Si      1      MOL     Si3709     3709    0.00000000   28.085499
  3710     UF_Si      1      MOL     Si3710     3710    0.00000000   28.085499
  3711     os         1      MOL     O3711      3711    0.00000000   15.999405
  3712     os         1      MOL     O3712      3712    0.00000000   15.999405
  3713     os         1      MOL     O3713      3713    0.00000000   15.999405
  3714     os         1      MOL     O3714      3714    0.00000000   15.999405
  3715     os         1      MOL     O3715      3715    0.00000000   15.999405
  3716     os         1      MOL     O3716      3716    0.00000000   15.999405
  3717     os         1      MOL     O3717      3717    0.00000000   15.999405
  3718     os         1      MOL     O3718      3718    0.00000000   15.999405
  3719     os         1      MOL     O3719      3719    0.00000000   15.999405
  3720     os         1      MOL     O3720      3720    0.00000000   15.999405
  3721     os         1      MOL     O3721      3721    0.00000000   15.999405
  3722     os         1      MOL     O3722      3722    0.00000000   15.999405
  3723     os         1      MOL     O3723      3723    0.00000000   15.999405
  3724     os         1      MOL     O3724      3724    0.00000000   15.999405
  3725     os         1      MOL     O3725      3725    0.00000000   15.999405
  3726     os         1      MOL     O3726      3726    0.00000000   15.999405
  3727     os         1      MOL     O3727      3727    0.00000000   15.999405
  3728     os         1      MOL     O3728      3728    0.00000000   15.999405
  3729     os         1      MOL     O3729      3729    0.00000000   15.999405
  3730     os         1      MOL     O3730      3730    0.00000000   15.999405
  3731     os         1      MOL     O3731      3731    0.00000000   15.999405
  3732     os         1      MOL     O3732      3732    0.00000000   15.999405
  3733     UF_Si      1      MOL     Si3733     3733    0.00000000   28.085499
  3734     UF_Si      1      MOL     Si3734     3734    0.00000000   28.085499
  3735     UF_Si      1      MOL     Si3735     3735    0.00000000   28.085499
  3736     UF_Si      1      MOL     Si3736     3736    0.00000000   28.085499
  3737     UF_Si      1      MOL     Si3737     3737    0.00000000   28.085499
  3738     UF_Si      1      MOL     Si3738     3738    0.00000000   28.085499
  3739     UF_Si      1      MOL     Si3739     3739    0.00000000   28.085499
  3740     UF_Si      1      MOL     Si3740     3740    0.00000000   28.085499
  3741     UF_Si      1      MOL     Si3741     3741    0.00000000   28.085499
  3742     UF_Si      1      MOL     Si3742     3742    0.00000000   28.085499
  3743     UF_Si      1      MOL     Si3743     3743    0.00000000   28.085499
  3744     UF_Si      1      MOL     Si3744     3744    0.00000000   28.085499
  3745     os         1      MOL     O3745      3745    0.00000000   15.999405
  3746     os         1      MOL     O3746      3746    0.00000000   15.999405
  3747     os         1      MOL     O3747      3747    0.00000000   15.999405
  3748     o          1      MOL     O3748      3748    0.00000000   15.999405
  3749     os         1      MOL     O3749      3749    0.00000000   15.999405
  3750     os         1      MOL     O3750      3750    0.00000000   15.999405
  3751     os         1      MOL     O3751      3751    0.00000000   15.999405
  3752     os         1      MOL     O3752      3752    0.00000000   15.999405
  3753     os         1      MOL     O3753      3753    0.00000000   15.999405
  3754     o          1      MOL     O3754      3754    0.00000000   15.999405
  3755     os         1      MOL     O3755      3755    0.00000000   15.999405
  3756     os         1      MOL     O3756      3756    0.00000000   15.999405
  3757     os         1      MOL     O3757      3757    0.00000000   15.999405
  3758     os         1      MOL     O3758      3758    0.00000000   15.999405
  3759     os         1      MOL     O3759      3759    0.00000000   15.999405
  3760     os         1      MOL     O3760      3760    0.00000000   15.999405
  3761     os         1      MOL     O3761      3761    0.00000000   15.999405
  3762     os         1      MOL     O3762      3762    0.00000000   15.999405
  3763     os         1      MOL     O3763      3763    0.00000000   15.999405
  3764     os         1      MOL     O3764      3764    0.00000000   15.999405
  3765     os         1      MOL     O3765      3765    0.00000000   15.999405
  3766     os         1      MOL     O3766      3766    0.00000000   15.999405
  3767     os         1      MOL     O3767      3767    0.00000000   15.999405
  3768     os         1      MOL     O3768      3768    0.00000000   15.999405
  3769     os         1      MOL     O3769      3769    0.00000000   15.999405
  3770     os         1      MOL     O3770      3770    0.00000000   15.999405
  3771     UF_Si      1      MOL     Si3771     3771    0.00000000   28.085499
  3772     UF_Si      1      MOL     Si3772     3772    0.00000000   28.085499
  3773     UF_Si      1      MOL     Si3773     3773    0.00000000   28.085499
  3774     UF_Si      1      MOL     Si3774     3774    0.00000000   28.085499
  3775     UF_Si      1      MOL     Si3775     3775    0.00000000   28.085499
  3776     UF_Si      1      MOL     Si3776     3776    0.00000000   28.085499
  3777     UF_Si      1      MOL     Si3777     3777    0.00000000   28.085499
  3778     UF_Si      1      MOL     Si3778     3778    0.00000000   28.085499
  3779     UF_Si      1      MOL     Si3779     3779    0.00000000   28.085499
  3780     UF_Si      1      MOL     Si3780     3780    0.00000000   28.085499
  3781     UF_Si      1      MOL     Si3781     3781    0.00000000   28.085499
  3782     UF_Si      1      MOL     Si3782     3782    0.00000000   28.085499
  3783     o          1      MOL     O3783      3783    0.00000000   15.999405
  3784     os         1      MOL     O3784      3784    0.00000000   15.999405
  3785     os         1      MOL     O3785      3785    0.00000000   15.999405
  3786     os         1      MOL     O3786      3786    0.00000000   15.999405
  3787     os         1      MOL     O3787      3787    0.00000000   15.999405
  3788     o          1      MOL     O3788      3788    0.00000000   15.999405
  3789     os         1      MOL     O3789      3789    0.00000000   15.999405
  3790     os         1      MOL     O3790      3790    0.00000000   15.999405
  3791     os         1      MOL     O3791      3791    0.00000000   15.999405
  3792     os         1      MOL     O3792      3792    0.00000000   15.999405
  3793     os         1      MOL     O3793      3793    0.00000000   15.999405
  3794     os         1      MOL     O3794      3794    0.00000000   15.999405
  3795     os         1      MOL     O3795      3795    0.00000000   15.999405
  3796     o          1      MOL     O3796      3796    0.00000000   15.999405
  3797     os         1      MOL     O3797      3797    0.00000000   15.999405
  3798     os         1      MOL     O3798      3798    0.00000000   15.999405
  3799     os         1      MOL     O3799      3799    0.00000000   15.999405
  3800     os         1      MOL     O3800      3800    0.00000000   15.999405
  3801     os         1      MOL     O3801      3801    0.00000000   15.999405
  3802     os         1      MOL     O3802      3802    0.00000000   15.999405
  3803     os         1      MOL     O3803      3803    0.00000000   15.999405
  3804     os         1      MOL     O3804      3804    0.00000000   15.999405
  3805     os         1      MOL     O3805      3805    0.00000000   15.999405
  3806     os         1      MOL     O3806      3806    0.00000000   15.999405
  3807     os         1      MOL     O3807      3807    0.00000000   15.999405
  3808     os         1      MOL     O3808      3808    0.00000000   15.999405
  3809     UF_Si      1      MOL     Si3809     3809    0.00000000   28.085499
  3810     UF_Si      1      MOL     Si3810     3810    0.00000000   28.085499
  3811     UF_Si      1      MOL     Si3811     3811    0.00000000   28.085499
  3812     UF_Si      1      MOL     Si3812     3812    0.00000000   28.085499
  3813     UF_Si      1      MOL     Si3813     3813    0.00000000   28.085499
  3814     UF_Si      1      MOL     Si3814     3814    0.00000000   28.085499
  3815     UF_Si      1      MOL     Si3815     3815    0.00000000   28.085499
  3816     UF_Si      1      MOL     Si3816     3816    0.00000000   28.085499
  3817     UF_Si      1      MOL     Si3817     3817    0.00000000   28.085499
  3818     UF_Si      1      MOL     Si3818     3818    0.00000000   28.085499
  3819     UF_Si      1      MOL     Si3819     3819    0.00000000   28.085499
  3820     UF_Si      1      MOL     Si3820     3820    0.00000000   28.085499
  3821     os         1      MOL     O3821      3821    0.00000000   15.999405
  3822     os         1      MOL     O3822      3822    0.00000000   15.999405
  3823     os         1      MOL     O3823      3823    0.00000000   15.999405
  3824     os         1      MOL     O3824      3824    0.00000000   15.999405
  3825     os         1      MOL     O3825      3825    0.00000000   15.999405
  3826     os         1      MOL     O3826      3826    0.00000000   15.999405
  3827     os         1      MOL     O3827      3827    0.00000000   15.999405
  3828     os         1      MOL     O3828      3828    0.00000000   15.999405
  3829     os         1      MOL     O3829      3829    0.00000000   15.999405
  3830     os         1      MOL     O3830      3830    0.00000000   15.999405
  3831     os         1      MOL     O3831      3831    0.00000000   15.999405
  3832     os         1      MOL     O3832      3832    0.00000000   15.999405
  3833     os         1      MOL     O3833      3833    0.00000000   15.999405
  3834     os         1      MOL     O3834      3834    0.00000000   15.999405
  3835     os         1      MOL     O3835      3835    0.00000000   15.999405
  3836     o          1      MOL     O3836      3836    0.00000000   15.999405
  3837     os         1      MOL     O3837      3837    0.00000000   15.999405
  3838     os         1      MOL     O3838      3838    0.00000000   15.999405
  3839     os         1      MOL     O3839      3839    0.00000000   15.999405
  3840     os         1      MOL     O3840      3840    0.00000000   15.999405
  3841     os         1      MOL     O3841      3841    0.00000000   15.999405
  3842     os         1      MOL     O3842      3842    0.00000000   15.999405
  3843     os         1      MOL     O3843      3843    0.00000000   15.999405
  3844     os         1      MOL     O3844      3844    0.00000000   15.999405
  3845     os         1      MOL     O3845      3845    0.00000000   15.999405
  3846     os         1      MOL     O3846      3846    0.00000000   15.999405
  3847     UF_Si      1      MOL     Si3847     3847    0.00000000   28.085499
  3848     UF_Si      1      MOL     Si3848     3848    0.00000000   28.085499
  3849     UF_Si      1      MOL     Si3849     3849    0.00000000   28.085499
  3850     UF_Si      1      MOL     Si3850     3850    0.00000000   28.085499
  3851     UF_Si      1      MOL     Si3851     3851    0.00000000   28.085499
  3852     UF_Si      1      MOL     Si3852     3852    0.00000000   28.085499
  3853     UF_Si      1      MOL     Si3853     3853    0.00000000   28.085499
  3854     UF_Si      1      MOL     Si3854     3854    0.00000000   28.085499
  3855     UF_Si      1      MOL     Si3855     3855    0.00000000   28.085499
  3856     UF_Si      1      MOL     Si3856     3856    0.00000000   28.085499
  3857     UF_Si      1      MOL     Si3857     3857    0.00000000   28.085499
  3858     UF_Si      1      MOL     Si3858     3858    0.00000000   28.085499
  3859     os         1      MOL     O3859      3859    0.00000000   15.999405
  3860     os         1      MOL     O3860      3860    0.00000000   15.999405
  3861     os         1      MOL     O3861      3861    0.00000000   15.999405
  3862     os         1      MOL     O3862      3862    0.00000000   15.999405
  3863     os         1      MOL     O3863      3863    0.00000000   15.999405
  3864     os         1      MOL     O3864      3864    0.00000000   15.999405
  3865     os         1      MOL     O3865      3865    0.00000000   15.999405
  3866     os         1      MOL     O3866      3866    0.00000000   15.999405
  3867     os         1      MOL     O3867      3867    0.00000000   15.999405
  3868     os         1      MOL     O3868      3868    0.00000000   15.999405
  3869     os         1      MOL     O3869      3869    0.00000000   15.999405
  3870     os         1      MOL     O3870      3870    0.00000000   15.999405
  3871     os         1      MOL     O3871      3871    0.00000000   15.999405
  3872     os         1      MOL     O3872      3872    0.00000000   15.999405
  3873     os         1      MOL     O3873      3873    0.00000000   15.999405
  3874     os         1      MOL     O3874      3874    0.00000000   15.999405
  3875     os         1      MOL     O3875      3875    0.00000000   15.999405
  3876     os         1      MOL     O3876      3876    0.00000000   15.999405
  3877     os         1      MOL     O3877      3877    0.00000000   15.999405
  3878     os         1      MOL     O3878      3878    0.00000000   15.999405
  3879     os         1      MOL     O3879      3879    0.00000000   15.999405
  3880     os         1      MOL     O3880      3880    0.00000000   15.999405
  3881     os         1      MOL     O3881      3881    0.00000000   15.999405
  3882     os         1      MOL     O3882      3882    0.00000000   15.999405
  3883     os         1      MOL     O3883      3883    0.00000000   15.999405
  3884     os         1      MOL     O3884      3884    0.00000000   15.999405
  3885     UF_Si      1      MOL     Si3885     3885    0.00000000   28.085499
  3886     UF_Si      1      MOL     Si3886     3886    0.00000000   28.085499
  3887     UF_Si      1      MOL     Si3887     3887    0.00000000   28.085499
  3888     UF_Si      1      MOL     Si3888     3888    0.00000000   28.085499
  3889     UF_Si      1      MOL     Si3889     3889    0.00000000   28.085499
  3890     UF_Si      1      MOL     Si3890     3890    0.00000000   28.085499
  3891     UF_Si      1      MOL     Si3891     3891    0.00000000   28.085499
  3892     UF_Si      1      MOL     Si3892     3892    0.00000000   28.085499
  3893     UF_Si      1      MOL     Si3893     3893    0.00000000   28.085499
  3894     UF_Si      1      MOL     Si3894     3894    0.00000000   28.085499
  3895     UF_Si      1      MOL     Si3895     3895    0.00000000   28.085499
  3896     UF_Si      1      MOL     Si3896     3896    0.00000000   28.085499
  3897     os         1      MOL     O3897      3897    0.00000000   15.999405
  3898     os         1      MOL     O3898      3898    0.00000000   15.999405
  3899     os         1      MOL     O3899      3899    0.00000000   15.999405
  3900     os         1      MOL     O3900      3900    0.00000000   15.999405
  3901     os         1      MOL     O3901      3901    0.00000000   15.999405
  3902     o          1      MOL     O3902      3902    0.00000000   15.999405
  3903     os         1      MOL     O3903      3903    0.00000000   15.999405
  3904     os         1      MOL     O3904      3904    0.00000000   15.999405
  3905     os         1      MOL     O3905      3905    0.00000000   15.999405
  3906     os         1      MOL     O3906      3906    0.00000000   15.999405
  3907     os         1      MOL     O3907      3907    0.00000000   15.999405
  3908     os         1      MOL     O3908      3908    0.00000000   15.999405
  3909     os         1      MOL     O3909      3909    0.00000000   15.999405
  3910     o          1      MOL     O3910      3910    0.00000000   15.999405
  3911     os         1      MOL     O3911      3911    0.00000000   15.999405
  3912     os         1      MOL     O3912      3912    0.00000000   15.999405
  3913     os         1      MOL     O3913      3913    0.00000000   15.999405
  3914     os         1      MOL     O3914      3914    0.00000000   15.999405
  3915     os         1      MOL     O3915      3915    0.00000000   15.999405
  3916     os         1      MOL     O3916      3916    0.00000000   15.999405
  3917     os         1      MOL     O3917      3917    0.00000000   15.999405
  3918     os         1      MOL     O3918      3918    0.00000000   15.999405
  3919     UF_Si      1      MOL     Si3919     3919    0.00000000   28.085499
  3920     UF_Si      1      MOL     Si3920     3920    0.00000000   28.085499
  3921     UF_Si      1      MOL     Si3921     3921    0.00000000   28.085499
  3922     UF_Si      1      MOL     Si3922     3922    0.00000000   28.085499
  3923     UF_Si      1      MOL     Si3923     3923    0.00000000   28.085499
  3924     UF_Si      1      MOL     Si3924     3924    0.00000000   28.085499
  3925     UF_Si      1      MOL     Si3925     3925    0.00000000   28.085499
  3926     UF_Si      1      MOL     Si3926     3926    0.00000000   28.085499
  3927     UF_Si      1      MOL     Si3927     3927    0.00000000   28.085499
  3928     UF_Si      1      MOL     Si3928     3928    0.00000000   28.085499
  3929     UF_Si      1      MOL     Si3929     3929    0.00000000   28.085499
  3930     UF_Si      1      MOL     Si3930     3930    0.00000000   28.085499
  3931     os         1      MOL     O3931      3931    0.00000000   15.999405
  3932     os         1      MOL     O3932      3932    0.00000000   15.999405
  3933     os         1      MOL     O3933      3933    0.00000000   15.999405
  3934     o          1      MOL     O3934      3934    0.00000000   15.999405
  3935     os         1      MOL     O3935      3935    0.00000000   15.999405
  3936     os         1      MOL     O3936      3936    0.00000000   15.999405
  3937     os         1      MOL     O3937      3937    0.00000000   15.999405
  3938     os         1      MOL     O3938      3938    0.00000000   15.999405
  3939     os         1      MOL     O3939      3939    0.00000000   15.999405
  3940     o          1      MOL     O3940      3940    0.00000000   15.999405
  3941     os         1      MOL     O3941      3941    0.00000000   15.999405
  3942     os         1      MOL     O3942      3942    0.00000000   15.999405
  3943     os         1      MOL     O3943      3943    0.00000000   15.999405
  3944     os         1      MOL     O3944      3944    0.00000000   15.999405
  3945     os         1      MOL     O3945      3945    0.00000000   15.999405
  3946     o          1      MOL     O3946      3946    0.00000000   15.999405
  3947     os         1      MOL     O3947      3947    0.00000000   15.999405
  3948     os         1      MOL     O3948      3948    0.00000000   15.999405
  3949     os         1      MOL     O3949      3949    0.00000000   15.999405
  3950     os         1      MOL     O3950      3950    0.00000000   15.999405
  3951     os         1      MOL     O3951      3951    0.00000000   15.999405
  3952     os         1      MOL     O3952      3952    0.00000000   15.999405
  3953     UF_Si      1      MOL     Si3953     3953    0.00000000   28.085499
  3954     UF_Si      1      MOL     Si3954     3954    0.00000000   28.085499
  3955     UF_Si      1      MOL     Si3955     3955    0.00000000   28.085499
  3956     UF_Si      1      MOL     Si3956     3956    0.00000000   28.085499
  3957     UF_Si      1      MOL     Si3957     3957    0.00000000   28.085499
  3958     UF_Si      1      MOL     Si3958     3958    0.00000000   28.085499
  3959     UF_Si      1      MOL     Si3959     3959    0.00000000   28.085499
  3960     UF_Si      1      MOL     Si3960     3960    0.00000000   28.085499
  3961     UF_Si      1      MOL     Si3961     3961    0.00000000   28.085499
  3962     UF_Si      1      MOL     Si3962     3962    0.00000000   28.085499
  3963     UF_Si      1      MOL     Si3963     3963    0.00000000   28.085499
  3964     UF_Si      1      MOL     Si3964     3964    0.00000000   28.085499
  3965     o          1      MOL     O3965      3965    0.00000000   15.999405
  3966     os         1      MOL     O3966      3966    0.00000000   15.999405
  3967     os         1      MOL     O3967      3967    0.00000000   15.999405
  3968     os         1      MOL     O3968      3968    0.00000000   15.999405
  3969     os         1      MOL     O3969      3969    0.00000000   15.999405
  3970     os         1      MOL     O3970      3970    0.00000000   15.999405
  3971     os         1      MOL     O3971      3971    0.00000000   15.999405
  3972     os         1      MOL     O3972      3972    0.00000000   15.999405
  3973     os         1      MOL     O3973      3973    0.00000000   15.999405
  3974     os         1      MOL     O3974      3974    0.00000000   15.999405
  3975     os         1      MOL     O3975      3975    0.00000000   15.999405
  3976     os         1      MOL     O3976      3976    0.00000000   15.999405
  3977     os         1      MOL     O3977      3977    0.00000000   15.999405
  3978     os         1      MOL     O3978      3978    0.00000000   15.999405
  3979     os         1      MOL     O3979      3979    0.00000000   15.999405
  3980     os         1      MOL     O3980      3980    0.00000000   15.999405
  3981     os         1      MOL     O3981      3981    0.00000000   15.999405
  3982     os         1      MOL     O3982      3982    0.00000000   15.999405
  3983     os         1      MOL     O3983      3983    0.00000000   15.999405
  3984     os         1      MOL     O3984      3984    0.00000000   15.999405
  3985     os         1      MOL     O3985      3985    0.00000000   15.999405
  3986     os         1      MOL     O3986      3986    0.00000000   15.999405
  3987     UF_Si      1      MOL     Si3987     3987    0.00000000   28.085499
  3988     UF_Si      1      MOL     Si3988     3988    0.00000000   28.085499
  3989     UF_Si      1      MOL     Si3989     3989    0.00000000   28.085499
  3990     UF_Si      1      MOL     Si3990     3990    0.00000000   28.085499
  3991     UF_Si      1      MOL     Si3991     3991    0.00000000   28.085499
  3992     UF_Si      1      MOL     Si3992     3992    0.00000000   28.085499
  3993     UF_Si      1      MOL     Si3993     3993    0.00000000   28.085499
  3994     UF_Si      1      MOL     Si3994     3994    0.00000000   28.085499
  3995     UF_Si      1      MOL     Si3995     3995    0.00000000   28.085499
  3996     UF_Si      1      MOL     Si3996     3996    0.00000000   28.085499
  3997     UF_Si      1      MOL     Si3997     3997    0.00000000   28.085499
  3998     UF_Si      1      MOL     Si3998     3998    0.00000000   28.085499
  3999     os         1      MOL     O3999      3999    0.00000000   15.999405
  4000     os         1      MOL     O4000      4000    0.00000000   15.999405
  4001     os         1      MOL     O4001      4001    0.00000000   15.999405
  4002     os         1      MOL     O4002      4002    0.00000000   15.999405
  4003     os         1      MOL     O4003      4003    0.00000000   15.999405
  4004     os         1      MOL     O4004      4004    0.00000000   15.999405
  4005     os         1      MOL     O4005      4005    0.00000000   15.999405
  4006     os         1      MOL     O4006      4006    0.00000000   15.999405
  4007     os         1      MOL     O4007      4007    0.00000000   15.999405
  4008     os         1      MOL     O4008      4008    0.00000000   15.999405
  4009     os         1      MOL     O4009      4009    0.00000000   15.999405
  4010     os         1      MOL     O4010      4010    0.00000000   15.999405
  4011     os         1      MOL     O4011      4011    0.00000000   15.999405
  4012     os         1      MOL     O4012      4012    0.00000000   15.999405
  4013     os         1      MOL     O4013      4013    0.00000000   15.999405
  4014     os         1      MOL     O4014      4014    0.00000000   15.999405
  4015     os         1      MOL     O4015      4015    0.00000000   15.999405
  4016     os         1      MOL     O4016      4016    0.00000000   15.999405
  4017     os         1      MOL     O4017      4017    0.00000000   15.999405
  4018     os         1      MOL     O4018      4018    0.00000000   15.999405
  4019     os         1      MOL     O4019      4019    0.00000000   15.999405
  4020     os         1      MOL     O4020      4020    0.00000000   15.999405
  4021     UF_Si      1      MOL     Si4021     4021    0.00000000   28.085499
  4022     UF_Si      1      MOL     Si4022     4022    0.00000000   28.085499
  4023     UF_Si      1      MOL     Si4023     4023    0.00000000   28.085499
  4024     UF_Si      1      MOL     Si4024     4024    0.00000000   28.085499
  4025     UF_Si      1      MOL     Si4025     4025    0.00000000   28.085499
  4026     UF_Si      1      MOL     Si4026     4026    0.00000000   28.085499
  4027     UF_Si      1      MOL     Si4027     4027    0.00000000   28.085499
  4028     UF_Si      1      MOL     Si4028     4028    0.00000000   28.085499
  4029     UF_Si      1      MOL     Si4029     4029    0.00000000   28.085499
  4030     UF_Si      1      MOL     Si4030     4030    0.00000000   28.085499
  4031     UF_Si      1      MOL     Si4031     4031    0.00000000   28.085499
  4032     UF_Si      1      MOL     Si4032     4032    0.00000000   28.085499
  4033     os         1      MOL     O4033      4033    0.00000000   15.999405
  4034     os         1      MOL     O4034      4034    0.00000000   15.999405
  4035     os         1      MOL     O4035      4035    0.00000000   15.999405
  4036     o          1      MOL     O4036      4036    0.00000000   15.999405
  4037     os         1      MOL     O4037      4037    0.00000000   15.999405
  4038     os         1      MOL     O4038      4038    0.00000000   15.999405
  4039     os         1      MOL     O4039      4039    0.00000000   15.999405
  4040     os         1      MOL     O4040      4040    0.00000000   15.999405
  4041     os         1      MOL     O4041      4041    0.00000000   15.999405
  4042     o          1      MOL     O4042      4042    0.00000000   15.999405
  4043     os         1      MOL     O4043      4043    0.00000000   15.999405
  4044     os         1      MOL     O4044      4044    0.00000000   15.999405
  4045     os         1      MOL     O4045      4045    0.00000000   15.999405
  4046     os         1      MOL     O4046      4046    0.00000000   15.999405
  4047     os         1      MOL     O4047      4047    0.00000000   15.999405
  4048     os         1      MOL     O4048      4048    0.00000000   15.999405
  4049     os         1      MOL     O4049      4049    0.00000000   15.999405
  4050     os         1      MOL     O4050      4050    0.00000000   15.999405
  4051     os         1      MOL     O4051      4051    0.00000000   15.999405
  4052     os         1      MOL     O4052      4052    0.00000000   15.999405
  4053     os         1      MOL     O4053      4053    0.00000000   15.999405
  4054     os         1      MOL     O4054      4054    0.00000000   15.999405
  4055     os         1      MOL     O4055      4055    0.00000000   15.999405
  4056     os         1      MOL     O4056      4056    0.00000000   15.999405
  4057     os         1      MOL     O4057      4057    0.00000000   15.999405
  4058     os         1      MOL     O4058      4058    0.00000000   15.999405
  4059     UF_Si      1      MOL     Si4059     4059    0.00000000   28.085499
  4060     UF_Si      1      MOL     Si4060     4060    0.00000000   28.085499
  4061     UF_Si      1      MOL     Si4061     4061    0.00000000   28.085499
  4062     UF_Si      1      MOL     Si4062     4062    0.00000000   28.085499
  4063     UF_Si      1      MOL     Si4063     4063    0.00000000   28.085499
  4064     UF_Si      1      MOL     Si4064     4064    0.00000000   28.085499
  4065     UF_Si      1      MOL     Si4065     4065    0.00000000   28.085499
  4066     UF_Si      1      MOL     Si4066     4066    0.00000000   28.085499
  4067     UF_Si      1      MOL     Si4067     4067    0.00000000   28.085499
  4068     UF_Si      1      MOL     Si4068     4068    0.00000000   28.085499
  4069     UF_Si      1      MOL     Si4069     4069    0.00000000   28.085499
  4070     UF_Si      1      MOL     Si4070     4070    0.00000000   28.085499
  4071     o          1      MOL     O4071      4071    0.00000000   15.999405
  4072     os         1      MOL     O4072      4072    0.00000000   15.999405
  4073     os         1      MOL     O4073      4073    0.00000000   15.999405
  4074     os         1      MOL     O4074      4074    0.00000000   15.999405
  4075     os         1      MOL     O4075      4075    0.00000000   15.999405
  4076     o          1      MOL     O4076      4076    0.00000000   15.999405
  4077     os         1      MOL     O4077      4077    0.00000000   15.999405
  4078     os         1      MOL     O4078      4078    0.00000000   15.999405
  4079     os         1      MOL     O4079      4079    0.00000000   15.999405
  4080     os         1      MOL     O4080      4080    0.00000000   15.999405
  4081     os         1      MOL     O4081      4081    0.00000000   15.999405
  4082     os         1      MOL     O4082      4082    0.00000000   15.999405
  4083     os         1      MOL     O4083      4083    0.00000000   15.999405
  4084     o          1      MOL     O4084      4084    0.00000000   15.999405
  4085     os         1      MOL     O4085      4085    0.00000000   15.999405
  4086     os         1      MOL     O4086      4086    0.00000000   15.999405
  4087     os         1      MOL     O4087      4087    0.00000000   15.999405
  4088     os         1      MOL     O4088      4088    0.00000000   15.999405
  4089     os         1      MOL     O4089      4089    0.00000000   15.999405
  4090     os         1      MOL     O4090      4090    0.00000000   15.999405
  4091     os         1      MOL     O4091      4091    0.00000000   15.999405
  4092     os         1      MOL     O4092      4092    0.00000000   15.999405
  4093     os         1      MOL     O4093      4093    0.00000000   15.999405
  4094     os         1      MOL     O4094      4094    0.00000000   15.999405
  4095     os         1      MOL     O4095      4095    0.00000000   15.999405
  4096     os         1      MOL     O4096      4096    0.00000000   15.999405
  4097     UF_Si      1      MOL     Si4097     4097    0.00000000   28.085499
  4098     UF_Si      1      MOL     Si4098     4098    0.00000000   28.085499
  4099     UF_Si      1      MOL     Si4099     4099    0.00000000   28.085499
  4100     UF_Si      1      MOL     Si4100     4100    0.00000000   28.085499
  4101     UF_Si      1      MOL     Si4101     4101    0.00000000   28.085499
  4102     UF_Si      1      MOL     Si4102     4102    0.00000000   28.085499
  4103     UF_Si      1      MOL     Si4103     4103    0.00000000   28.085499
  4104     UF_Si      1      MOL     Si4104     4104    0.00000000   28.085499
  4105     UF_Si      1      MOL     Si4105     4105    0.00000000   28.085499
  4106     UF_Si      1      MOL     Si4106     4106    0.00000000   28.085499
  4107     UF_Si      1      MOL     Si4107     4107    0.00000000   28.085499
  4108     UF_Si      1      MOL     Si4108     4108    0.00000000   28.085499
  4109     os         1      MOL     O4109      4109    0.00000000   15.999405
  4110     os         1      MOL     O4110      4110    0.00000000   15.999405
  4111     os         1      MOL     O4111      4111    0.00000000   15.999405
  4112     os         1      MOL     O4112      4112    0.00000000   15.999405
  4113     os         1      MOL     O4113      4113    0.00000000   15.999405
  4114     os         1      MOL     O4114      4114    0.00000000   15.999405
  4115     os         1      MOL     O4115      4115    0.00000000   15.999405
  4116     os         1      MOL     O4116      4116    0.00000000   15.999405
  4117     os         1      MOL     O4117      4117    0.00000000   15.999405
  4118     os         1      MOL     O4118      4118    0.00000000   15.999405
  4119     os         1      MOL     O4119      4119    0.00000000   15.999405
  4120     os         1      MOL     O4120      4120    0.00000000   15.999405
  4121     os         1      MOL     O4121      4121    0.00000000   15.999405
  4122     os         1      MOL     O4122      4122    0.00000000   15.999405
  4123     os         1      MOL     O4123      4123    0.00000000   15.999405
  4124     o          1      MOL     O4124      4124    0.00000000   15.999405
  4125     os         1      MOL     O4125      4125    0.00000000   15.999405
  4126     os         1      MOL     O4126      4126    0.00000000   15.999405
  4127     os         1      MOL     O4127      4127    0.00000000   15.999405
  4128     os         1      MOL     O4128      4128    0.00000000   15.999405
  4129     os         1      MOL     O4129      4129    0.00000000   15.999405
  4130     os         1      MOL     O4130      4130    0.00000000   15.999405
  4131     os         1      MOL     O4131      4131    0.00000000   15.999405
  4132     os         1      MOL     O4132      4132    0.00000000   15.999405
  4133     os         1      MOL     O4133      4133    0.00000000   15.999405
  4134     os         1      MOL     O4134      4134    0.00000000   15.999405
  4135     UF_Si      1      MOL     Si4135     4135    0.00000000   28.085499
  4136     UF_Si      1      MOL     Si4136     4136    0.00000000   28.085499
  4137     UF_Si      1      MOL     Si4137     4137    0.00000000   28.085499
  4138     UF_Si      1      MOL     Si4138     4138    0.00000000   28.085499
  4139     UF_Si      1      MOL     Si4139     4139    0.00000000   28.085499
  4140     UF_Si      1      MOL     Si4140     4140    0.00000000   28.085499
  4141     UF_Si      1      MOL     Si4141     4141    0.00000000   28.085499
  4142     UF_Si      1      MOL     Si4142     4142    0.00000000   28.085499
  4143     UF_Si      1      MOL     Si4143     4143    0.00000000   28.085499
  4144     UF_Si      1      MOL     Si4144     4144    0.00000000   28.085499
  4145     UF_Si      1      MOL     Si4145     4145    0.00000000   28.085499
  4146     UF_Si      1      MOL     Si4146     4146    0.00000000   28.085499
  4147     os         1      MOL     O4147      4147    0.00000000   15.999405
  4148     os         1      MOL     O4148      4148    0.00000000   15.999405
  4149     os         1      MOL     O4149      4149    0.00000000   15.999405
  4150     os         1      MOL     O4150      4150    0.00000000   15.999405
  4151     os         1      MOL     O4151      4151    0.00000000   15.999405
  4152     os         1      MOL     O4152      4152    0.00000000   15.999405
  4153     os         1      MOL     O4153      4153    0.00000000   15.999405
  4154     os         1      MOL     O4154      4154    0.00000000   15.999405
  4155     os         1      MOL     O4155      4155    0.00000000   15.999405
  4156     os         1      MOL     O4156      4156    0.00000000   15.999405
  4157     os         1      MOL     O4157      4157    0.00000000   15.999405
  4158     os         1      MOL     O4158      4158    0.00000000   15.999405
  4159     os         1      MOL     O4159      4159    0.00000000   15.999405
  4160     os         1      MOL     O4160      4160    0.00000000   15.999405
  4161     os         1      MOL     O4161      4161    0.00000000   15.999405
  4162     os         1      MOL     O4162      4162    0.00000000   15.999405
  4163     os         1      MOL     O4163      4163    0.00000000   15.999405
  4164     os         1      MOL     O4164      4164    0.00000000   15.999405
  4165     os         1      MOL     O4165      4165    0.00000000   15.999405
  4166     os         1      MOL     O4166      4166    0.00000000   15.999405
  4167     os         1      MOL     O4167      4167    0.00000000   15.999405
  4168     os         1      MOL     O4168      4168    0.00000000   15.999405
  4169     os         1      MOL     O4169      4169    0.00000000   15.999405
  4170     os         1      MOL     O4170      4170    0.00000000   15.999405
  4171     os         1      MOL     O4171      4171    0.00000000   15.999405
  4172     os         1      MOL     O4172      4172    0.00000000   15.999405
  4173     UF_Si      1      MOL     Si4173     4173    0.00000000   28.085499
  4174     UF_Si      1      MOL     Si4174     4174    0.00000000   28.085499
  4175     UF_Si      1      MOL     Si4175     4175    0.00000000   28.085499
  4176     UF_Si      1      MOL     Si4176     4176    0.00000000   28.085499
  4177     UF_Si      1      MOL     Si4177     4177    0.00000000   28.085499
  4178     UF_Si      1      MOL     Si4178     4178    0.00000000   28.085499
  4179     UF_Si      1      MOL     Si4179     4179    0.00000000   28.085499
  4180     UF_Si      1      MOL     Si4180     4180    0.00000000   28.085499
  4181     UF_Si      1      MOL     Si4181     4181    0.00000000   28.085499
  4182     UF_Si      1      MOL     Si4182     4182    0.00000000   28.085499
  4183     UF_Si      1      MOL     Si4183     4183    0.00000000   28.085499
  4184     UF_Si      1      MOL     Si4184     4184    0.00000000   28.085499
  4185     os         1      MOL     O4185      4185    0.00000000   15.999405
  4186     os         1      MOL     O4186      4186    0.00000000   15.999405
  4187     os         1      MOL     O4187      4187    0.00000000   15.999405
  4188     os         1      MOL     O4188      4188    0.00000000   15.999405
  4189     os         1      MOL     O4189      4189    0.00000000   15.999405
  4190     o          1      MOL     O4190      4190    0.00000000   15.999405
  4191     os         1      MOL     O4191      4191    0.00000000   15.999405
  4192     os         1      MOL     O4192      4192    0.00000000   15.999405
  4193     os         1      MOL     O4193      4193    0.00000000   15.999405
  4194     os         1      MOL     O4194      4194    0.00000000   15.999405
  4195     os         1      MOL     O4195      4195    0.00000000   15.999405
  4196     os         1      MOL     O4196      4196    0.00000000   15.999405
  4197     os         1      MOL     O4197      4197    0.00000000   15.999405
  4198     o          1      MOL     O4198      4198    0.00000000   15.999405
  4199     os         1      MOL     O4199      4199    0.00000000   15.999405
  4200     os         1      MOL     O4200      4200    0.00000000   15.999405
  4201     os         1      MOL     O4201      4201    0.00000000   15.999405
  4202     os         1      MOL     O4202      4202    0.00000000   15.999405
  4203     os         1      MOL     O4203      4203    0.00000000   15.999405
  4204     os         1      MOL     O4204      4204    0.00000000   15.999405
  4205     os         1      MOL     O4205      4205    0.00000000   15.999405
  4206     os         1      MOL     O4206      4206    0.00000000   15.999405
  4207     UF_Si      1      MOL     Si4207     4207    0.00000000   28.085499
  4208     UF_Si      1      MOL     Si4208     4208    0.00000000   28.085499
  4209     UF_Si      1      MOL     Si4209     4209    0.00000000   28.085499
  4210     UF_Si      1      MOL     Si4210     4210    0.00000000   28.085499
  4211     UF_Si      1      MOL     Si4211     4211    0.00000000   28.085499
  4212     UF_Si      1      MOL     Si4212     4212    0.00000000   28.085499
  4213     UF_Si      1      MOL     Si4213     4213    0.00000000   28.085499
  4214     UF_Si      1      MOL     Si4214     4214    0.00000000   28.085499
  4215     UF_Si      1      MOL     Si4215     4215    0.00000000   28.085499
  4216     UF_Si      1      MOL     Si4216     4216    0.00000000   28.085499
  4217     UF_Si      1      MOL     Si4217     4217    0.00000000   28.085499
  4218     UF_Si      1      MOL     Si4218     4218    0.00000000   28.085499
  4219     os         1      MOL     O4219      4219    0.00000000   15.999405
  4220     os         1      MOL     O4220      4220    0.00000000   15.999405
  4221     os         1      MOL     O4221      4221    0.00000000   15.999405
  4222     o          1      MOL     O4222      4222    0.00000000   15.999405
  4223     os         1      MOL     O4223      4223    0.00000000   15.999405
  4224     os         1      MOL     O4224      4224    0.00000000   15.999405
  4225     os         1      MOL     O4225      4225    0.00000000   15.999405
  4226     os         1      MOL     O4226      4226    0.00000000   15.999405
  4227     os         1      MOL     O4227      4227    0.00000000   15.999405
  4228     o          1      MOL     O4228      4228    0.00000000   15.999405
  4229     os         1      MOL     O4229      4229    0.00000000   15.999405
  4230     os         1      MOL     O4230      4230    0.00000000   15.999405
  4231     os         1      MOL     O4231      4231    0.00000000   15.999405
  4232     os         1      MOL     O4232      4232    0.00000000   15.999405
  4233     os         1      MOL     O4233      4233    0.00000000   15.999405
  4234     o          1      MOL     O4234      4234    0.00000000   15.999405
  4235     os         1      MOL     O4235      4235    0.00000000   15.999405
  4236     os         1      MOL     O4236      4236    0.00000000   15.999405
  4237     os         1      MOL     O4237      4237    0.00000000   15.999405
  4238     os         1      MOL     O4238      4238    0.00000000   15.999405
  4239     os         1      MOL     O4239      4239    0.00000000   15.999405
  4240     os         1      MOL     O4240      4240    0.00000000   15.999405
  4241     UF_Si      1      MOL     Si4241     4241    0.00000000   28.085499
  4242     UF_Si      1      MOL     Si4242     4242    0.00000000   28.085499
  4243     UF_Si      1      MOL     Si4243     4243    0.00000000   28.085499
  4244     UF_Si      1      MOL     Si4244     4244    0.00000000   28.085499
  4245     UF_Si      1      MOL     Si4245     4245    0.00000000   28.085499
  4246     UF_Si      1      MOL     Si4246     4246    0.00000000   28.085499
  4247     UF_Si      1      MOL     Si4247     4247    0.00000000   28.085499
  4248     UF_Si      1      MOL     Si4248     4248    0.00000000   28.085499
  4249     UF_Si      1      MOL     Si4249     4249    0.00000000   28.085499
  4250     UF_Si      1      MOL     Si4250     4250    0.00000000   28.085499
  4251     UF_Si      1      MOL     Si4251     4251    0.00000000   28.085499
  4252     UF_Si      1      MOL     Si4252     4252    0.00000000   28.085499
  4253     o          1      MOL     O4253      4253    0.00000000   15.999405
  4254     os         1      MOL     O4254      4254    0.00000000   15.999405
  4255     os         1      MOL     O4255      4255    0.00000000   15.999405
  4256     os         1      MOL     O4256      4256    0.00000000   15.999405
  4257     os         1      MOL     O4257      4257    0.00000000   15.999405
  4258     os         1      MOL     O4258      4258    0.00000000   15.999405
  4259     os         1      MOL     O4259      4259    0.00000000   15.999405
  4260     os         1      MOL     O4260      4260    0.00000000   15.999405
  4261     os         1      MOL     O4261      4261    0.00000000   15.999405
  4262     os         1      MOL     O4262      4262    0.00000000   15.999405
  4263     os         1      MOL     O4263      4263    0.00000000   15.999405
  4264     os         1      MOL     O4264      4264    0.00000000   15.999405
  4265     os         1      MOL     O4265      4265    0.00000000   15.999405
  4266     os         1      MOL     O4266      4266    0.00000000   15.999405
  4267     os         1      MOL     O4267      4267    0.00000000   15.999405
  4268     os         1      MOL     O4268      4268    0.00000000   15.999405
  4269     os         1      MOL     O4269      4269    0.00000000   15.999405
  4270     os         1      MOL     O4270      4270    0.00000000   15.999405
  4271     os         1      MOL     O4271      4271    0.00000000   15.999405
  4272     os         1      MOL     O4272      4272    0.00000000   15.999405
  4273     os         1      MOL     O4273      4273    0.00000000   15.999405
  4274     os         1      MOL     O4274      4274    0.00000000   15.999405
  4275     UF_Si      1      MOL     Si4275     4275    0.00000000   28.085499
  4276     UF_Si      1      MOL     Si4276     4276    0.00000000   28.085499
  4277     UF_Si      1      MOL     Si4277     4277    0.00000000   28.085499
  4278     UF_Si      1      MOL     Si4278     4278    0.00000000   28.085499
  4279     UF_Si      1      MOL     Si4279     4279    0.00000000   28.085499
  4280     UF_Si      1      MOL     Si4280     4280    0.00000000   28.085499
  4281     UF_Si      1      MOL     Si4281     4281    0.00000000   28.085499
  4282     UF_Si      1      MOL     Si4282     4282    0.00000000   28.085499
  4283     UF_Si      1      MOL     Si4283     4283    0.00000000   28.085499
  4284     UF_Si      1      MOL     Si4284     4284    0.00000000   28.085499
  4285     UF_Si      1      MOL     Si4285     4285    0.00000000   28.085499
  4286     UF_Si      1      MOL     Si4286     4286    0.00000000   28.085499
  4287     os         1      MOL     O4287      4287    0.00000000   15.999405
  4288     os         1      MOL     O4288      4288    0.00000000   15.999405
  4289     os         1      MOL     O4289      4289    0.00000000   15.999405
  4290     os         1      MOL     O4290      4290    0.00000000   15.999405
  4291     os         1      MOL     O4291      4291    0.00000000   15.999405
  4292     os         1      MOL     O4292      4292    0.00000000   15.999405
  4293     os         1      MOL     O4293      4293    0.00000000   15.999405
  4294     os         1      MOL     O4294      4294    0.00000000   15.999405
  4295     os         1      MOL     O4295      4295    0.00000000   15.999405
  4296     os         1      MOL     O4296      4296    0.00000000   15.999405
  4297     os         1      MOL     O4297      4297    0.00000000   15.999405
  4298     os         1      MOL     O4298      4298    0.00000000   15.999405
  4299     os         1      MOL     O4299      4299    0.00000000   15.999405
  4300     os         1      MOL     O4300      4300    0.00000000   15.999405
  4301     os         1      MOL     O4301      4301    0.00000000   15.999405
  4302     os         1      MOL     O4302      4302    0.00000000   15.999405
  4303     os         1      MOL     O4303      4303    0.00000000   15.999405
  4304     os         1      MOL     O4304      4304    0.00000000   15.999405
  4305     os         1      MOL     O4305      4305    0.00000000   15.999405
  4306     os         1      MOL     O4306      4306    0.00000000   15.999405
  4307     os         1      MOL     O4307      4307    0.00000000   15.999405
  4308     os         1      MOL     O4308      4308    0.00000000   15.999405
  4309     UF_Si      1      MOL     Si4309     4309    0.00000000   28.085499
  4310     UF_Si      1      MOL     Si4310     4310    0.00000000   28.085499
  4311     UF_Si      1      MOL     Si4311     4311    0.00000000   28.085499
  4312     UF_Si      1      MOL     Si4312     4312    0.00000000   28.085499
  4313     UF_Si      1      MOL     Si4313     4313    0.00000000   28.085499
  4314     UF_Si      1      MOL     Si4314     4314    0.00000000   28.085499
  4315     UF_Si      1      MOL     Si4315     4315    0.00000000   28.085499
  4316     UF_Si      1      MOL     Si4316     4316    0.00000000   28.085499
  4317     UF_Si      1      MOL     Si4317     4317    0.00000000   28.085499
  4318     UF_Si      1      MOL     Si4318     4318    0.00000000   28.085499
  4319     UF_Si      1      MOL     Si4319     4319    0.00000000   28.085499
  4320     UF_Si      1      MOL     Si4320     4320    0.00000000   28.085499
  4321     os         1      MOL     O4321      4321    0.00000000   15.999405
  4322     os         1      MOL     O4322      4322    0.00000000   15.999405
  4323     os         1      MOL     O4323      4323    0.00000000   15.999405
  4324     o          1      MOL     O4324      4324    0.00000000   15.999405
  4325     o          1      MOL     O4325      4325    0.00000000   15.999405
  4326     os         1      MOL     O4326      4326    0.00000000   15.999405
  4327     os         1      MOL     O4327      4327    0.00000000   15.999405
  4328     os         1      MOL     O4328      4328    0.00000000   15.999405
  4329     os         1      MOL     O4329      4329    0.00000000   15.999405
  4330     o          1      MOL     O4330      4330    0.00000000   15.999405
  4331     os         1      MOL     O4331      4331    0.00000000   15.999405
  4332     o          1      MOL     O4332      4332    0.00000000   15.999405
  4333     os         1      MOL     O4333      4333    0.00000000   15.999405
  4334     os         1      MOL     O4334      4334    0.00000000   15.999405
  4335     os         1      MOL     O4335      4335    0.00000000   15.999405
  4336     os         1      MOL     O4336      4336    0.00000000   15.999405
  4337     os         1      MOL     O4337      4337    0.00000000   15.999405
  4338     os         1      MOL     O4338      4338    0.00000000   15.999405
  4339     o          1      MOL     O4339      4339    0.00000000   15.999405
  4340     os         1      MOL     O4340      4340    0.00000000   15.999405
  4341     os         1      MOL     O4341      4341    0.00000000   15.999405
  4342     os         1      MOL     O4342      4342    0.00000000   15.999405
  4343     os         1      MOL     O4343      4343    0.00000000   15.999405
  4344     o          1      MOL     O4344      4344    0.00000000   15.999405
  4345     os         1      MOL     O4345      4345    0.00000000   15.999405
  4346     os         1      MOL     O4346      4346    0.00000000   15.999405
  4347     UF_Si      1      MOL     Si4347     4347    0.00000000   28.085499
  4348     UF_Si      1      MOL     Si4348     4348    0.00000000   28.085499
  4349     UF_Si      1      MOL     Si4349     4349    0.00000000   28.085499
  4350     UF_Si      1      MOL     Si4350     4350    0.00000000   28.085499
  4351     UF_Si      1      MOL     Si4351     4351    0.00000000   28.085499
  4352     UF_Si      1      MOL     Si4352     4352    0.00000000   28.085499
  4353     UF_Si      1      MOL     Si4353     4353    0.00000000   28.085499
  4354     UF_Si      1      MOL     Si4354     4354    0.00000000   28.085499
  4355     UF_Si      1      MOL     Si4355     4355    0.00000000   28.085499
  4356     UF_Si      1      MOL     Si4356     4356    0.00000000   28.085499
  4357     UF_Si      1      MOL     Si4357     4357    0.00000000   28.085499
  4358     UF_Si      1      MOL     Si4358     4358    0.00000000   28.085499
  4359     o          1      MOL     O4359      4359    0.00000000   15.999405
  4360     os         1      MOL     O4360      4360    0.00000000   15.999405
  4361     os         1      MOL     O4361      4361    0.00000000   15.999405
  4362     os         1      MOL     O4362      4362    0.00000000   15.999405
  4363     os         1      MOL     O4363      4363    0.00000000   15.999405
  4364     o          1      MOL     O4364      4364    0.00000000   15.999405
  4365     os         1      MOL     O4365      4365    0.00000000   15.999405
  4366     os         1      MOL     O4366      4366    0.00000000   15.999405
  4367     os         1      MOL     O4367      4367    0.00000000   15.999405
  4368     os         1      MOL     O4368      4368    0.00000000   15.999405
  4369     os         1      MOL     O4369      4369    0.00000000   15.999405
  4370     os         1      MOL     O4370      4370    0.00000000   15.999405
  4371     os         1      MOL     O4371      4371    0.00000000   15.999405
  4372     o          1      MOL     O4372      4372    0.00000000   15.999405
  4373     os         1      MOL     O4373      4373    0.00000000   15.999405
  4374     os         1      MOL     O4374      4374    0.00000000   15.999405
  4375     os         1      MOL     O4375      4375    0.00000000   15.999405
  4376     os         1      MOL     O4376      4376    0.00000000   15.999405
  4377     os         1      MOL     O4377      4377    0.00000000   15.999405
  4378     os         1      MOL     O4378      4378    0.00000000   15.999405
  4379     os         1      MOL     O4379      4379    0.00000000   15.999405
  4380     os         1      MOL     O4380      4380    0.00000000   15.999405
  4381     os         1      MOL     O4381      4381    0.00000000   15.999405
  4382     os         1      MOL     O4382      4382    0.00000000   15.999405
  4383     os         1      MOL     O4383      4383    0.00000000   15.999405
  4384     os         1      MOL     O4384      4384    0.00000000   15.999405
  4385     UF_Si      1      MOL     Si4385     4385    0.00000000   28.085499
  4386     UF_Si      1      MOL     Si4386     4386    0.00000000   28.085499
  4387     UF_Si      1      MOL     Si4387     4387    0.00000000   28.085499
  4388     UF_Si      1      MOL     Si4388     4388    0.00000000   28.085499
  4389     UF_Si      1      MOL     Si4389     4389    0.00000000   28.085499
  4390     UF_Si      1      MOL     Si4390     4390    0.00000000   28.085499
  4391     UF_Si      1      MOL     Si4391     4391    0.00000000   28.085499
  4392     UF_Si      1      MOL     Si4392     4392    0.00000000   28.085499
  4393     UF_Si      1      MOL     Si4393     4393    0.00000000   28.085499
  4394     UF_Si      1      MOL     Si4394     4394    0.00000000   28.085499
  4395     UF_Si      1      MOL     Si4395     4395    0.00000000   28.085499
  4396     UF_Si      1      MOL     Si4396     4396    0.00000000   28.085499
  4397     os         1      MOL     O4397      4397    0.00000000   15.999405
  4398     os         1      MOL     O4398      4398    0.00000000   15.999405
  4399     os         1      MOL     O4399      4399    0.00000000   15.999405
  4400     os         1      MOL     O4400      4400    0.00000000   15.999405
  4401     os         1      MOL     O4401      4401    0.00000000   15.999405
  4402     os         1      MOL     O4402      4402    0.00000000   15.999405
  4403     os         1      MOL     O4403      4403    0.00000000   15.999405
  4404     os         1      MOL     O4404      4404    0.00000000   15.999405
  4405     os         1      MOL     O4405      4405    0.00000000   15.999405
  4406     os         1      MOL     O4406      4406    0.00000000   15.999405
  4407     os         1      MOL     O4407      4407    0.00000000   15.999405
  4408     os         1      MOL     O4408      4408    0.00000000   15.999405
  4409     os         1      MOL     O4409      4409    0.00000000   15.999405
  4410     os         1      MOL     O4410      4410    0.00000000   15.999405
  4411     os         1      MOL     O4411      4411    0.00000000   15.999405
  4412     o          1      MOL     O4412      4412    0.00000000   15.999405
  4413     os         1      MOL     O4413      4413    0.00000000   15.999405
  4414     os         1      MOL     O4414      4414    0.00000000   15.999405
  4415     os         1      MOL     O4415      4415    0.00000000   15.999405
  4416     os         1      MOL     O4416      4416    0.00000000   15.999405
  4417     os         1      MOL     O4417      4417    0.00000000   15.999405
  4418     os         1      MOL     O4418      4418    0.00000000   15.999405
  4419     os         1      MOL     O4419      4419    0.00000000   15.999405
  4420     os         1      MOL     O4420      4420    0.00000000   15.999405
  4421     os         1      MOL     O4421      4421    0.00000000   15.999405
  4422     os         1      MOL     O4422      4422    0.00000000   15.999405
  4423     UF_Si      1      MOL     Si4423     4423    0.00000000   28.085499
  4424     UF_Si      1      MOL     Si4424     4424    0.00000000   28.085499
  4425     UF_Si      1      MOL     Si4425     4425    0.00000000   28.085499
  4426     UF_Si      1      MOL     Si4426     4426    0.00000000   28.085499
  4427     UF_Si      1      MOL     Si4427     4427    0.00000000   28.085499
  4428     UF_Si      1      MOL     Si4428     4428    0.00000000   28.085499
  4429     UF_Si      1      MOL     Si4429     4429    0.00000000   28.085499
  4430     UF_Si      1      MOL     Si4430     4430    0.00000000   28.085499
  4431     UF_Si      1      MOL     Si4431     4431    0.00000000   28.085499
  4432     UF_Si      1      MOL     Si4432     4432    0.00000000   28.085499
  4433     UF_Si      1      MOL     Si4433     4433    0.00000000   28.085499
  4434     UF_Si      1      MOL     Si4434     4434    0.00000000   28.085499
  4435     os         1      MOL     O4435      4435    0.00000000   15.999405
  4436     os         1      MOL     O4436      4436    0.00000000   15.999405
  4437     os         1      MOL     O4437      4437    0.00000000   15.999405
  4438     os         1      MOL     O4438      4438    0.00000000   15.999405
  4439     os         1      MOL     O4439      4439    0.00000000   15.999405
  4440     os         1      MOL     O4440      4440    0.00000000   15.999405
  4441     os         1      MOL     O4441      4441    0.00000000   15.999405
  4442     os         1      MOL     O4442      4442    0.00000000   15.999405
  4443     os         1      MOL     O4443      4443    0.00000000   15.999405
  4444     os         1      MOL     O4444      4444    0.00000000   15.999405
  4445     os         1      MOL     O4445      4445    0.00000000   15.999405
  4446     os         1      MOL     O4446      4446    0.00000000   15.999405
  4447     os         1      MOL     O4447      4447    0.00000000   15.999405
  4448     os         1      MOL     O4448      4448    0.00000000   15.999405
  4449     os         1      MOL     O4449      4449    0.00000000   15.999405
  4450     os         1      MOL     O4450      4450    0.00000000   15.999405
  4451     os         1      MOL     O4451      4451    0.00000000   15.999405
  4452     os         1      MOL     O4452      4452    0.00000000   15.999405
  4453     os         1      MOL     O4453      4453    0.00000000   15.999405
  4454     os         1      MOL     O4454      4454    0.00000000   15.999405
  4455     os         1      MOL     O4455      4455    0.00000000   15.999405
  4456     os         1      MOL     O4456      4456    0.00000000   15.999405
  4457     os         1      MOL     O4457      4457    0.00000000   15.999405
  4458     os         1      MOL     O4458      4458    0.00000000   15.999405
  4459     os         1      MOL     O4459      4459    0.00000000   15.999405
  4460     os         1      MOL     O4460      4460    0.00000000   15.999405
  4461     UF_Si      1      MOL     Si4461     4461    0.00000000   28.085499
  4462     UF_Si      1      MOL     Si4462     4462    0.00000000   28.085499
  4463     UF_Si      1      MOL     Si4463     4463    0.00000000   28.085499
  4464     UF_Si      1      MOL     Si4464     4464    0.00000000   28.085499
  4465     UF_Si      1      MOL     Si4465     4465    0.00000000   28.085499
  4466     UF_Si      1      MOL     Si4466     4466    0.00000000   28.085499
  4467     UF_Si      1      MOL     Si4467     4467    0.00000000   28.085499
  4468     UF_Si      1      MOL     Si4468     4468    0.00000000   28.085499
  4469     UF_Si      1      MOL     Si4469     4469    0.00000000   28.085499
  4470     UF_Si      1      MOL     Si4470     4470    0.00000000   28.085499
  4471     UF_Si      1      MOL     Si4471     4471    0.00000000   28.085499
  4472     UF_Si      1      MOL     Si4472     4472    0.00000000   28.085499
  4473     os         1      MOL     O4473      4473    0.00000000   15.999405
  4474     os         1      MOL     O4474      4474    0.00000000   15.999405
  4475     os         1      MOL     O4475      4475    0.00000000   15.999405
  4476     os         1      MOL     O4476      4476    0.00000000   15.999405
  4477     os         1      MOL     O4477      4477    0.00000000   15.999405
  4478     o          1      MOL     O4478      4478    0.00000000   15.999405
  4479     os         1      MOL     O4479      4479    0.00000000   15.999405
  4480     os         1      MOL     O4480      4480    0.00000000   15.999405
  4481     os         1      MOL     O4481      4481    0.00000000   15.999405
  4482     os         1      MOL     O4482      4482    0.00000000   15.999405
  4483     os         1      MOL     O4483      4483    0.00000000   15.999405
  4484     os         1      MOL     O4484      4484    0.00000000   15.999405
  4485     os         1      MOL     O4485      4485    0.00000000   15.999405
  4486     o          1      MOL     O4486      4486    0.00000000   15.999405
  4487     os         1      MOL     O4487      4487    0.00000000   15.999405
  4488     os         1      MOL     O4488      4488    0.00000000   15.999405
  4489     os         1      MOL     O4489      4489    0.00000000   15.999405
  4490     os         1      MOL     O4490      4490    0.00000000   15.999405
  4491     os         1      MOL     O4491      4491    0.00000000   15.999405
  4492     os         1      MOL     O4492      4492    0.00000000   15.999405
  4493     os         1      MOL     O4493      4493    0.00000000   15.999405
  4494     os         1      MOL     O4494      4494    0.00000000   15.999405
  4495     UF_Si      1      MOL     Si4495     4495    0.00000000   28.085499
  4496     UF_Si      1      MOL     Si4496     4496    0.00000000   28.085499
  4497     UF_Si      1      MOL     Si4497     4497    0.00000000   28.085499
  4498     UF_Si      1      MOL     Si4498     4498    0.00000000   28.085499
  4499     UF_Si      1      MOL     Si4499     4499    0.00000000   28.085499
  4500     UF_Si      1      MOL     Si4500     4500    0.00000000   28.085499
  4501     UF_Si      1      MOL     Si4501     4501    0.00000000   28.085499
  4502     UF_Si      1      MOL     Si4502     4502    0.00000000   28.085499
  4503     UF_Si      1      MOL     Si4503     4503    0.00000000   28.085499
  4504     UF_Si      1      MOL     Si4504     4504    0.00000000   28.085499
  4505     UF_Si      1      MOL     Si4505     4505    0.00000000   28.085499
  4506     UF_Si      1      MOL     Si4506     4506    0.00000000   28.085499
  4507     os         1      MOL     O4507      4507    0.00000000   15.999405
  4508     os         1      MOL     O4508      4508    0.00000000   15.999405
  4509     os         1      MOL     O4509      4509    0.00000000   15.999405
  4510     o          1      MOL     O4510      4510    0.00000000   15.999405
  4511     os         1      MOL     O4511      4511    0.00000000   15.999405
  4512     os         1      MOL     O4512      4512    0.00000000   15.999405
  4513     os         1      MOL     O4513      4513    0.00000000   15.999405
  4514     os         1      MOL     O4514      4514    0.00000000   15.999405
  4515     os         1      MOL     O4515      4515    0.00000000   15.999405
  4516     o          1      MOL     O4516      4516    0.00000000   15.999405
  4517     os         1      MOL     O4517      4517    0.00000000   15.999405
  4518     os         1      MOL     O4518      4518    0.00000000   15.999405
  4519     os         1      MOL     O4519      4519    0.00000000   15.999405
  4520     os         1      MOL     O4520      4520    0.00000000   15.999405
  4521     os         1      MOL     O4521      4521    0.00000000   15.999405
  4522     o          1      MOL     O4522      4522    0.00000000   15.999405
  4523     os         1      MOL     O4523      4523    0.00000000   15.999405
  4524     os         1      MOL     O4524      4524    0.00000000   15.999405
  4525     os         1      MOL     O4525      4525    0.00000000   15.999405
  4526     os         1      MOL     O4526      4526    0.00000000   15.999405
  4527     os         1      MOL     O4527      4527    0.00000000   15.999405
  4528     os         1      MOL     O4528      4528    0.00000000   15.999405
  4529     UF_Si      1      MOL     Si4529     4529    0.00000000   28.085499
  4530     UF_Si      1      MOL     Si4530     4530    0.00000000   28.085499
  4531     UF_Si      1      MOL     Si4531     4531    0.00000000   28.085499
  4532     UF_Si      1      MOL     Si4532     4532    0.00000000   28.085499
  4533     UF_Si      1      MOL     Si4533     4533    0.00000000   28.085499
  4534     UF_Si      1      MOL     Si4534     4534    0.00000000   28.085499
  4535     UF_Si      1      MOL     Si4535     4535    0.00000000   28.085499
  4536     UF_Si      1      MOL     Si4536     4536    0.00000000   28.085499
  4537     UF_Si      1      MOL     Si4537     4537    0.00000000   28.085499
  4538     UF_Si      1      MOL     Si4538     4538    0.00000000   28.085499
  4539     UF_Si      1      MOL     Si4539     4539    0.00000000   28.085499
  4540     UF_Si      1      MOL     Si4540     4540    0.00000000   28.085499
  4541     o          1      MOL     O4541      4541    0.00000000   15.999405
  4542     os         1      MOL     O4542      4542    0.00000000   15.999405
  4543     os         1      MOL     O4543      4543    0.00000000   15.999405
  4544     os         1      MOL     O4544      4544    0.00000000   15.999405
  4545     os         1      MOL     O4545      4545    0.00000000   15.999405
  4546     os         1      MOL     O4546      4546    0.00000000   15.999405
  4547     os         1      MOL     O4547      4547    0.00000000   15.999405
  4548     os         1      MOL     O4548      4548    0.00000000   15.999405
  4549     os         1      MOL     O4549      4549    0.00000000   15.999405
  4550     os         1      MOL     O4550      4550    0.00000000   15.999405
  4551     os         1      MOL     O4551      4551    0.00000000   15.999405
  4552     os         1      MOL     O4552      4552    0.00000000   15.999405
  4553     os         1      MOL     O4553      4553    0.00000000   15.999405
  4554     os         1      MOL     O4554      4554    0.00000000   15.999405
  4555     os         1      MOL     O4555      4555    0.00000000   15.999405
  4556     os         1      MOL     O4556      4556    0.00000000   15.999405
  4557     os         1      MOL     O4557      4557    0.00000000   15.999405
  4558     os         1      MOL     O4558      4558    0.00000000   15.999405
  4559     os         1      MOL     O4559      4559    0.00000000   15.999405
  4560     os         1      MOL     O4560      4560    0.00000000   15.999405
  4561     os         1      MOL     O4561      4561    0.00000000   15.999405
  4562     os         1      MOL     O4562      4562    0.00000000   15.999405
  4563     UF_Si      1      MOL     Si4563     4563    0.00000000   28.085499
  4564     UF_Si      1      MOL     Si4564     4564    0.00000000   28.085499
  4565     UF_Si      1      MOL     Si4565     4565    0.00000000   28.085499
  4566     UF_Si      1      MOL     Si4566     4566    0.00000000   28.085499
  4567     UF_Si      1      MOL     Si4567     4567    0.00000000   28.085499
  4568     UF_Si      1      MOL     Si4568     4568    0.00000000   28.085499
  4569     UF_Si      1      MOL     Si4569     4569    0.00000000   28.085499
  4570     UF_Si      1      MOL     Si4570     4570    0.00000000   28.085499
  4571     UF_Si      1      MOL     Si4571     4571    0.00000000   28.085499
  4572     UF_Si      1      MOL     Si4572     4572    0.00000000   28.085499
  4573     UF_Si      1      MOL     Si4573     4573    0.00000000   28.085499
  4574     UF_Si      1      MOL     Si4574     4574    0.00000000   28.085499
  4575     os         1      MOL     O4575      4575    0.00000000   15.999405
  4576     os         1      MOL     O4576      4576    0.00000000   15.999405
  4577     os         1      MOL     O4577      4577    0.00000000   15.999405
  4578     os         1      MOL     O4578      4578    0.00000000   15.999405
  4579     o          1      MOL     O4579      4579    0.00000000   15.999405
  4580     os         1      MOL     O4580      4580    0.00000000   15.999405
  4581     os         1      MOL     O4581      4581    0.00000000   15.999405
  4582     os         1      MOL     O4582      4582    0.00000000   15.999405
  4583     os         1      MOL     O4583      4583    0.00000000   15.999405
  4584     os         1      MOL     O4584      4584    0.00000000   15.999405
  4585     os         1      MOL     O4585      4585    0.00000000   15.999405
  4586     o          1      MOL     O4586      4586    0.00000000   15.999405
  4587     os         1      MOL     O4587      4587    0.00000000   15.999405
  4588     os         1      MOL     O4588      4588    0.00000000   15.999405
  4589     os         1      MOL     O4589      4589    0.00000000   15.999405
  4590     os         1      MOL     O4590      4590    0.00000000   15.999405
  4591     os         1      MOL     O4591      4591    0.00000000   15.999405
  4592     o          1      MOL     O4592      4592    0.00000000   15.999405
  4593     os         1      MOL     O4593      4593    0.00000000   15.999405
  4594     os         1      MOL     O4594      4594    0.00000000   15.999405
  4595     o          1      MOL     O4595      4595    0.00000000   15.999405
  4596     os         1      MOL     O4596      4596    0.00000000   15.999405
  4597     UF_Si      1      MOL     Si4597     4597    0.00000000   28.085499
  4598     UF_Si      1      MOL     Si4598     4598    0.00000000   28.085499
  4599     UF_Si      1      MOL     Si4599     4599    0.00000000   28.085499
  4600     UF_Si      1      MOL     Si4600     4600    0.00000000   28.085499
  4601     UF_Si      1      MOL     Si4601     4601    0.00000000   28.085499
  4602     UF_Si      1      MOL     Si4602     4602    0.00000000   28.085499
  4603     UF_Si      1      MOL     Si4603     4603    0.00000000   28.085499
  4604     UF_Si      1      MOL     Si4604     4604    0.00000000   28.085499
  4605     UF_Si      1      MOL     Si4605     4605    0.00000000   28.085499
  4606     UF_Si      1      MOL     Si4606     4606    0.00000000   28.085499
  4607     UF_Si      1      MOL     Si4607     4607    0.00000000   28.085499
  4608     UF_Si      1      MOL     Si4608     4608    0.00000000   28.085499
  4609     os         1      MOL     O4609      4609    0.00000000   15.999405
  4610     os         1      MOL     O4610      4610    0.00000000   15.999405
  4611     os         1      MOL     O4611      4611    0.00000000   15.999405
  4612     os         1      MOL     O4612      4612    0.00000000   15.999405
  4613     os         1      MOL     O4613      4613    0.00000000   15.999405
  4614     os         1      MOL     O4614      4614    0.00000000   15.999405
  4615     os         1      MOL     O4615      4615    0.00000000   15.999405
  4616     os         1      MOL     O4616      4616    0.00000000   15.999405
  4617     os         1      MOL     O4617      4617    0.00000000   15.999405
  4618     os         1      MOL     O4618      4618    0.00000000   15.999405
  4619     os         1      MOL     O4619      4619    0.00000000   15.999405
  4620     os         1      MOL     O4620      4620    0.00000000   15.999405
  4621     os         1      MOL     O4621      4621    0.00000000   15.999405
  4622     os         1      MOL     O4622      4622    0.00000000   15.999405
  4623     os         1      MOL     O4623      4623    0.00000000   15.999405
  4624     os         1      MOL     O4624      4624    0.00000000   15.999405
  4625     os         1      MOL     O4625      4625    0.00000000   15.999405
  4626     os         1      MOL     O4626      4626    0.00000000   15.999405
  4627     os         1      MOL     O4627      4627    0.00000000   15.999405
  4628     os         1      MOL     O4628      4628    0.00000000   15.999405
  4629     os         1      MOL     O4629      4629    0.00000000   15.999405
  4630     os         1      MOL     O4630      4630    0.00000000   15.999405
  4631     os         1      MOL     O4631      4631    0.00000000   15.999405
  4632     os         1      MOL     O4632      4632    0.00000000   15.999405
  4633     os         1      MOL     O4633      4633    0.00000000   15.999405
  4634     os         1      MOL     O4634      4634    0.00000000   15.999405
  4635     UF_Si      1      MOL     Si4635     4635    0.00000000   28.085499
  4636     UF_Si      1      MOL     Si4636     4636    0.00000000   28.085499
  4637     UF_Si      1      MOL     Si4637     4637    0.00000000   28.085499
  4638     UF_Si      1      MOL     Si4638     4638    0.00000000   28.085499
  4639     UF_Si      1      MOL     Si4639     4639    0.00000000   28.085499
  4640     UF_Si      1      MOL     Si4640     4640    0.00000000   28.085499
  4641     UF_Si      1      MOL     Si4641     4641    0.00000000   28.085499
  4642     UF_Si      1      MOL     Si4642     4642    0.00000000   28.085499
  4643     UF_Si      1      MOL     Si4643     4643    0.00000000   28.085499
  4644     UF_Si      1      MOL     Si4644     4644    0.00000000   28.085499
  4645     UF_Si      1      MOL     Si4645     4645    0.00000000   28.085499
  4646     UF_Si      1      MOL     Si4646     4646    0.00000000   28.085499
  4647     o          1      MOL     O4647      4647    0.00000000   15.999405
  4648     os         1      MOL     O4648      4648    0.00000000   15.999405
  4649     os         1      MOL     O4649      4649    0.00000000   15.999405
  4650     os         1      MOL     O4650      4650    0.00000000   15.999405
  4651     os         1      MOL     O4651      4651    0.00000000   15.999405
  4652     os         1      MOL     O4652      4652    0.00000000   15.999405
  4653     os         1      MOL     O4653      4653    0.00000000   15.999405
  4654     os         1      MOL     O4654      4654    0.00000000   15.999405
  4655     os         1      MOL     O4655      4655    0.00000000   15.999405
  4656     os         1      MOL     O4656      4656    0.00000000   15.999405
  4657     os         1      MOL     O4657      4657    0.00000000   15.999405
  4658     os         1      MOL     O4658      4658    0.00000000   15.999405
  4659     os         1      MOL     O4659      4659    0.00000000   15.999405
  4660     os         1      MOL     O4660      4660    0.00000000   15.999405
  4661     os         1      MOL     O4661      4661    0.00000000   15.999405
  4662     os         1      MOL     O4662      4662    0.00000000   15.999405
  4663     os         1      MOL     O4663      4663    0.00000000   15.999405
  4664     os         1      MOL     O4664      4664    0.00000000   15.999405
  4665     os         1      MOL     O4665      4665    0.00000000   15.999405
  4666     os         1      MOL     O4666      4666    0.00000000   15.999405
  4667     os         1      MOL     O4667      4667    0.00000000   15.999405
  4668     os         1      MOL     O4668      4668    0.00000000   15.999405
  4669     os         1      MOL     O4669      4669    0.00000000   15.999405
  4670     os         1      MOL     O4670      4670    0.00000000   15.999405
  4671     os         1      MOL     O4671      4671    0.00000000   15.999405
  4672     os         1      MOL     O4672      4672    0.00000000   15.999405
  4673     UF_Si      1      MOL     Si4673     4673    0.00000000   28.085499
  4674     UF_Si      1      MOL     Si4674     4674    0.00000000   28.085499
  4675     UF_Si      1      MOL     Si4675     4675    0.00000000   28.085499
  4676     UF_Si      1      MOL     Si4676     4676    0.00000000   28.085499
  4677     UF_Si      1      MOL     Si4677     4677    0.00000000   28.085499
  4678     UF_Si      1      MOL     Si4678     4678    0.00000000   28.085499
  4679     UF_Si      1      MOL     Si4679     4679    0.00000000   28.085499
  4680     UF_Si      1      MOL     Si4680     4680    0.00000000   28.085499
  4681     UF_Si      1      MOL     Si4681     4681    0.00000000   28.085499
  4682     UF_Si      1      MOL     Si4682     4682    0.00000000   28.085499
  4683     UF_Si      1      MOL     Si4683     4683    0.00000000   28.085499
  4684     UF_Si      1      MOL     Si4684     4684    0.00000000   28.085499
  4685     os         1      MOL     O4685      4685    0.00000000   15.999405
  4686     os         1      MOL     O4686      4686    0.00000000   15.999405
  4687     os         1      MOL     O4687      4687    0.00000000   15.999405
  4688     os         1      MOL     O4688      4688    0.00000000   15.999405
  4689     os         1      MOL     O4689      4689    0.00000000   15.999405
  4690     os         1      MOL     O4690      4690    0.00000000   15.999405
  4691     os         1      MOL     O4691      4691    0.00000000   15.999405
  4692     os         1      MOL     O4692      4692    0.00000000   15.999405
  4693     os         1      MOL     O4693      4693    0.00000000   15.999405
  4694     os         1      MOL     O4694      4694    0.00000000   15.999405
  4695     os         1      MOL     O4695      4695    0.00000000   15.999405
  4696     os         1      MOL     O4696      4696    0.00000000   15.999405
  4697     os         1      MOL     O4697      4697    0.00000000   15.999405
  4698     os         1      MOL     O4698      4698    0.00000000   15.999405
  4699     os         1      MOL     O4699      4699    0.00000000   15.999405
  4700     o          1      MOL     O4700      4700    0.00000000   15.999405
  4701     os         1      MOL     O4701      4701    0.00000000   15.999405
  4702     os         1      MOL     O4702      4702    0.00000000   15.999405
  4703     os         1      MOL     O4703      4703    0.00000000   15.999405
  4704     os         1      MOL     O4704      4704    0.00000000   15.999405
  4705     os         1      MOL     O4705      4705    0.00000000   15.999405
  4706     os         1      MOL     O4706      4706    0.00000000   15.999405
  4707     os         1      MOL     O4707      4707    0.00000000   15.999405
  4708     os         1      MOL     O4708      4708    0.00000000   15.999405
  4709     os         1      MOL     O4709      4709    0.00000000   15.999405
  4710     os         1      MOL     O4710      4710    0.00000000   15.999405
  4711     UF_Si      1      MOL     Si4711     4711    0.00000000   28.085499
  4712     UF_Si      1      MOL     Si4712     4712    0.00000000   28.085499
  4713     UF_Si      1      MOL     Si4713     4713    0.00000000   28.085499
  4714     UF_Si      1      MOL     Si4714     4714    0.00000000   28.085499
  4715     UF_Si      1      MOL     Si4715     4715    0.00000000   28.085499
  4716     UF_Si      1      MOL     Si4716     4716    0.00000000   28.085499
  4717     UF_Si      1      MOL     Si4717     4717    0.00000000   28.085499
  4718     UF_Si      1      MOL     Si4718     4718    0.00000000   28.085499
  4719     UF_Si      1      MOL     Si4719     4719    0.00000000   28.085499
  4720     UF_Si      1      MOL     Si4720     4720    0.00000000   28.085499
  4721     UF_Si      1      MOL     Si4721     4721    0.00000000   28.085499
  4722     UF_Si      1      MOL     Si4722     4722    0.00000000   28.085499
  4723     os         1      MOL     O4723      4723    0.00000000   15.999405
  4724     os         1      MOL     O4724      4724    0.00000000   15.999405
  4725     os         1      MOL     O4725      4725    0.00000000   15.999405
  4726     os         1      MOL     O4726      4726    0.00000000   15.999405
  4727     o          1      MOL     O4727      4727    0.00000000   15.999405
  4728     os         1      MOL     O4728      4728    0.00000000   15.999405
  4729     os         1      MOL     O4729      4729    0.00000000   15.999405
  4730     os         1      MOL     O4730      4730    0.00000000   15.999405
  4731     os         1      MOL     O4731      4731    0.00000000   15.999405
  4732     os         1      MOL     O4732      4732    0.00000000   15.999405
  4733     os         1      MOL     O4733      4733    0.00000000   15.999405
  4734     o          1      MOL     O4734      4734    0.00000000   15.999405
  4735     os         1      MOL     O4735      4735    0.00000000   15.999405
  4736     os         1      MOL     O4736      4736    0.00000000   15.999405
  4737     os         1      MOL     O4737      4737    0.00000000   15.999405
  4738     os         1      MOL     O4738      4738    0.00000000   15.999405
  4739     os         1      MOL     O4739      4739    0.00000000   15.999405
  4740     os         1      MOL     O4740      4740    0.00000000   15.999405
  4741     o          1      MOL     O4741      4741    0.00000000   15.999405
  4742     os         1      MOL     O4742      4742    0.00000000   15.999405
  4743     os         1      MOL     O4743      4743    0.00000000   15.999405
  4744     os         1      MOL     O4744      4744    0.00000000   15.999405
  4745     os         1      MOL     O4745      4745    0.00000000   15.999405
  4746     o          1      MOL     O4746      4746    0.00000000   15.999405
  4747     os         1      MOL     O4747      4747    0.00000000   15.999405
  4748     os         1      MOL     O4748      4748    0.00000000   15.999405
  4749     UF_Si      1      MOL     Si4749     4749    0.00000000   28.085499
  4750     UF_Si      1      MOL     Si4750     4750    0.00000000   28.085499
  4751     UF_Si      1      MOL     Si4751     4751    0.00000000   28.085499
  4752     UF_Si      1      MOL     Si4752     4752    0.00000000   28.085499
  4753     UF_Si      1      MOL     Si4753     4753    0.00000000   28.085499
  4754     UF_Si      1      MOL     Si4754     4754    0.00000000   28.085499
  4755     UF_Si      1      MOL     Si4755     4755    0.00000000   28.085499
  4756     UF_Si      1      MOL     Si4756     4756    0.00000000   28.085499
  4757     UF_Si      1      MOL     Si4757     4757    0.00000000   28.085499
  4758     UF_Si      1      MOL     Si4758     4758    0.00000000   28.085499
  4759     UF_Si      1      MOL     Si4759     4759    0.00000000   28.085499
  4760     UF_Si      1      MOL     Si4760     4760    0.00000000   28.085499
  4761     os         1      MOL     O4761      4761    0.00000000   15.999405
  4762     os         1      MOL     O4762      4762    0.00000000   15.999405
  4763     os         1      MOL     O4763      4763    0.00000000   15.999405
  4764     os         1      MOL     O4764      4764    0.00000000   15.999405
  4765     o          1      MOL     O4765      4765    0.00000000   15.999405
  4766     os         1      MOL     O4766      4766    0.00000000   15.999405
  4767     os         1      MOL     O4767      4767    0.00000000   15.999405
  4768     os         1      MOL     O4768      4768    0.00000000   15.999405
  4769     os         1      MOL     O4769      4769    0.00000000   15.999405
  4770     os         1      MOL     O4770      4770    0.00000000   15.999405
  4771     os         1      MOL     O4771      4771    0.00000000   15.999405
  4772     o          1      MOL     O4772      4772    0.00000000   15.999405
  4773     os         1      MOL     O4773      4773    0.00000000   15.999405
  4774     os         1      MOL     O4774      4774    0.00000000   15.999405
  4775     os         1      MOL     O4775      4775    0.00000000   15.999405
  4776     os         1      MOL     O4776      4776    0.00000000   15.999405
  4777     os         1      MOL     O4777      4777    0.00000000   15.999405
  4778     o          1      MOL     O4778      4778    0.00000000   15.999405
  4779     os         1      MOL     O4779      4779    0.00000000   15.999405
  4780     os         1      MOL     O4780      4780    0.00000000   15.999405
  4781     o          1      MOL     O4781      4781    0.00000000   15.999405
  4782     os         1      MOL     O4782      4782    0.00000000   15.999405
  4783     UF_Si      1      MOL     Si4783     4783    0.00000000   28.085499
  4784     UF_Si      1      MOL     Si4784     4784    0.00000000   28.085499
  4785     UF_Si      1      MOL     Si4785     4785    0.00000000   28.085499
  4786     UF_Si      1      MOL     Si4786     4786    0.00000000   28.085499
  4787     UF_Si      1      MOL     Si4787     4787    0.00000000   28.085499
  4788     UF_Si      1      MOL     Si4788     4788    0.00000000   28.085499
  4789     UF_Si      1      MOL     Si4789     4789    0.00000000   28.085499
  4790     UF_Si      1      MOL     Si4790     4790    0.00000000   28.085499
  4791     UF_Si      1      MOL     Si4791     4791    0.00000000   28.085499
  4792     UF_Si      1      MOL     Si4792     4792    0.00000000   28.085499
  4793     UF_Si      1      MOL     Si4793     4793    0.00000000   28.085499
  4794     UF_Si      1      MOL     Si4794     4794    0.00000000   28.085499
  4795     os         1      MOL     O4795      4795    0.00000000   15.999405
  4796     os         1      MOL     O4796      4796    0.00000000   15.999405
  4797     os         1      MOL     O4797      4797    0.00000000   15.999405
  4798     os         1      MOL     O4798      4798    0.00000000   15.999405
  4799     os         1      MOL     O4799      4799    0.00000000   15.999405
  4800     os         1      MOL     O4800      4800    0.00000000   15.999405
  4801     os         1      MOL     O4801      4801    0.00000000   15.999405
  4802     os         1      MOL     O4802      4802    0.00000000   15.999405
  4803     os         1      MOL     O4803      4803    0.00000000   15.999405
  4804     os         1      MOL     O4804      4804    0.00000000   15.999405
  4805     os         1      MOL     O4805      4805    0.00000000   15.999405
  4806     os         1      MOL     O4806      4806    0.00000000   15.999405
  4807     os         1      MOL     O4807      4807    0.00000000   15.999405
  4808     os         1      MOL     O4808      4808    0.00000000   15.999405
  4809     os         1      MOL     O4809      4809    0.00000000   15.999405
  4810     o          1      MOL     O4810      4810    0.00000000   15.999405
  4811     os         1      MOL     O4811      4811    0.00000000   15.999405
  4812     os         1      MOL     O4812      4812    0.00000000   15.999405
  4813     os         1      MOL     O4813      4813    0.00000000   15.999405
  4814     os         1      MOL     O4814      4814    0.00000000   15.999405
  4815     os         1      MOL     O4815      4815    0.00000000   15.999405
  4816     os         1      MOL     O4816      4816    0.00000000   15.999405
  4817     UF_Si      1      MOL     Si4817     4817    0.00000000   28.085499
  4818     UF_Si      1      MOL     Si4818     4818    0.00000000   28.085499
  4819     UF_Si      1      MOL     Si4819     4819    0.00000000   28.085499
  4820     UF_Si      1      MOL     Si4820     4820    0.00000000   28.085499
  4821     UF_Si      1      MOL     Si4821     4821    0.00000000   28.085499
  4822     UF_Si      1      MOL     Si4822     4822    0.00000000   28.085499
  4823     UF_Si      1      MOL     Si4823     4823    0.00000000   28.085499
  4824     UF_Si      1      MOL     Si4824     4824    0.00000000   28.085499
  4825     UF_Si      1      MOL     Si4825     4825    0.00000000   28.085499
  4826     UF_Si      1      MOL     Si4826     4826    0.00000000   28.085499
  4827     UF_Si      1      MOL     Si4827     4827    0.00000000   28.085499
  4828     UF_Si      1      MOL     Si4828     4828    0.00000000   28.085499
  4829     o          1      MOL     O4829      4829    0.00000000   15.999405
  4830     os         1      MOL     O4830      4830    0.00000000   15.999405
  4831     os         1      MOL     O4831      4831    0.00000000   15.999405
  4832     os         1      MOL     O4832      4832    0.00000000   15.999405
  4833     os         1      MOL     O4833      4833    0.00000000   15.999405
  4834     os         1      MOL     O4834      4834    0.00000000   15.999405
  4835     os         1      MOL     O4835      4835    0.00000000   15.999405
  4836     os         1      MOL     O4836      4836    0.00000000   15.999405
  4837     os         1      MOL     O4837      4837    0.00000000   15.999405
  4838     os         1      MOL     O4838      4838    0.00000000   15.999405
  4839     os         1      MOL     O4839      4839    0.00000000   15.999405
  4840     os         1      MOL     O4840      4840    0.00000000   15.999405
  4841     os         1      MOL     O4841      4841    0.00000000   15.999405
  4842     os         1      MOL     O4842      4842    0.00000000   15.999405
  4843     os         1      MOL     O4843      4843    0.00000000   15.999405
  4844     os         1      MOL     O4844      4844    0.00000000   15.999405
  4845     os         1      MOL     O4845      4845    0.00000000   15.999405
  4846     os         1      MOL     O4846      4846    0.00000000   15.999405
  4847     os         1      MOL     O4847      4847    0.00000000   15.999405
  4848     os         1      MOL     O4848      4848    0.00000000   15.999405
  4849     os         1      MOL     O4849      4849    0.00000000   15.999405
  4850     os         1      MOL     O4850      4850    0.00000000   15.999405
  4851     UF_Si      1      MOL     Si4851     4851    0.00000000   28.085499
  4852     UF_Si      1      MOL     Si4852     4852    0.00000000   28.085499
  4853     UF_Si      1      MOL     Si4853     4853    0.00000000   28.085499
  4854     UF_Si      1      MOL     Si4854     4854    0.00000000   28.085499
  4855     UF_Si      1      MOL     Si4855     4855    0.00000000   28.085499
  4856     UF_Si      1      MOL     Si4856     4856    0.00000000   28.085499
  4857     UF_Si      1      MOL     Si4857     4857    0.00000000   28.085499
  4858     UF_Si      1      MOL     Si4858     4858    0.00000000   28.085499
  4859     UF_Si      1      MOL     Si4859     4859    0.00000000   28.085499
  4860     UF_Si      1      MOL     Si4860     4860    0.00000000   28.085499
  4861     UF_Si      1      MOL     Si4861     4861    0.00000000   28.085499
  4862     UF_Si      1      MOL     Si4862     4862    0.00000000   28.085499
  4863     os         1      MOL     O4863      4863    0.00000000   15.999405
  4864     os         1      MOL     O4864      4864    0.00000000   15.999405
  4865     os         1      MOL     O4865      4865    0.00000000   15.999405
  4866     os         1      MOL     O4866      4866    0.00000000   15.999405
  4867     os         1      MOL     O4867      4867    0.00000000   15.999405
  4868     os         1      MOL     O4868      4868    0.00000000   15.999405
  4869     os         1      MOL     O4869      4869    0.00000000   15.999405
  4870     os         1      MOL     O4870      4870    0.00000000   15.999405
  4871     os         1      MOL     O4871      4871    0.00000000   15.999405
  4872     os         1      MOL     O4872      4872    0.00000000   15.999405
  4873     os         1      MOL     O4873      4873    0.00000000   15.999405
  4874     os         1      MOL     O4874      4874    0.00000000   15.999405
  4875     os         1      MOL     O4875      4875    0.00000000   15.999405
  4876     os         1      MOL     O4876      4876    0.00000000   15.999405
  4877     os         1      MOL     O4877      4877    0.00000000   15.999405
  4878     os         1      MOL     O4878      4878    0.00000000   15.999405
  4879     os         1      MOL     O4879      4879    0.00000000   15.999405
  4880     os         1      MOL     O4880      4880    0.00000000   15.999405
  4881     os         1      MOL     O4881      4881    0.00000000   15.999405
  4882     os         1      MOL     O4882      4882    0.00000000   15.999405
  4883     os         1      MOL     O4883      4883    0.00000000   15.999405
  4884     os         1      MOL     O4884      4884    0.00000000   15.999405
  4885     UF_Si      1      MOL     Si4885     4885    0.00000000   28.085499
  4886     UF_Si      1      MOL     Si4886     4886    0.00000000   28.085499
  4887     UF_Si      1      MOL     Si4887     4887    0.00000000   28.085499
  4888     UF_Si      1      MOL     Si4888     4888    0.00000000   28.085499
  4889     UF_Si      1      MOL     Si4889     4889    0.00000000   28.085499
  4890     UF_Si      1      MOL     Si4890     4890    0.00000000   28.085499
  4891     UF_Si      1      MOL     Si4891     4891    0.00000000   28.085499
  4892     UF_Si      1      MOL     Si4892     4892    0.00000000   28.085499
  4893     UF_Si      1      MOL     Si4893     4893    0.00000000   28.085499
  4894     UF_Si      1      MOL     Si4894     4894    0.00000000   28.085499
  4895     UF_Si      1      MOL     Si4895     4895    0.00000000   28.085499
  4896     UF_Si      1      MOL     Si4896     4896    0.00000000   28.085499
  4897     os         1      MOL     O4897      4897    0.00000000   15.999405
  4898     os         1      MOL     O4898      4898    0.00000000   15.999405
  4899     os         1      MOL     O4899      4899    0.00000000   15.999405
  4900     os         1      MOL     O4900      4900    0.00000000   15.999405
  4901     os         1      MOL     O4901      4901    0.00000000   15.999405
  4902     os         1      MOL     O4902      4902    0.00000000   15.999405
  4903     os         1      MOL     O4903      4903    0.00000000   15.999405
  4904     os         1      MOL     O4904      4904    0.00000000   15.999405
  4905     os         1      MOL     O4905      4905    0.00000000   15.999405
  4906     os         1      MOL     O4906      4906    0.00000000   15.999405
  4907     os         1      MOL     O4907      4907    0.00000000   15.999405
  4908     os         1      MOL     O4908      4908    0.00000000   15.999405
  4909     os         1      MOL     O4909      4909    0.00000000   15.999405
  4910     os         1      MOL     O4910      4910    0.00000000   15.999405
  4911     os         1      MOL     O4911      4911    0.00000000   15.999405
  4912     os         1      MOL     O4912      4912    0.00000000   15.999405
  4913     os         1      MOL     O4913      4913    0.00000000   15.999405
  4914     os         1      MOL     O4914      4914    0.00000000   15.999405
  4915     os         1      MOL     O4915      4915    0.00000000   15.999405
  4916     os         1      MOL     O4916      4916    0.00000000   15.999405
  4917     os         1      MOL     O4917      4917    0.00000000   15.999405
  4918     os         1      MOL     O4918      4918    0.00000000   15.999405
  4919     os         1      MOL     O4919      4919    0.00000000   15.999405
  4920     os         1      MOL     O4920      4920    0.00000000   15.999405
  4921     os         1      MOL     O4921      4921    0.00000000   15.999405
  4922     os         1      MOL     O4922      4922    0.00000000   15.999405
  4923     UF_Si      1      MOL     Si4923     4923    0.00000000   28.085499
  4924     UF_Si      1      MOL     Si4924     4924    0.00000000   28.085499
  4925     UF_Si      1      MOL     Si4925     4925    0.00000000   28.085499
  4926     UF_Si      1      MOL     Si4926     4926    0.00000000   28.085499
  4927     UF_Si      1      MOL     Si4927     4927    0.00000000   28.085499
  4928     UF_Si      1      MOL     Si4928     4928    0.00000000   28.085499
  4929     UF_Si      1      MOL     Si4929     4929    0.00000000   28.085499
  4930     UF_Si      1      MOL     Si4930     4930    0.00000000   28.085499
  4931     UF_Si      1      MOL     Si4931     4931    0.00000000   28.085499
  4932     UF_Si      1      MOL     Si4932     4932    0.00000000   28.085499
  4933     UF_Si      1      MOL     Si4933     4933    0.00000000   28.085499
  4934     UF_Si      1      MOL     Si4934     4934    0.00000000   28.085499
  4935     o          1      MOL     O4935      4935    0.00000000   15.999405
  4936     os         1      MOL     O4936      4936    0.00000000   15.999405
  4937     os         1      MOL     O4937      4937    0.00000000   15.999405
  4938     os         1      MOL     O4938      4938    0.00000000   15.999405
  4939     os         1      MOL     O4939      4939    0.00000000   15.999405
  4940     os         1      MOL     O4940      4940    0.00000000   15.999405
  4941     os         1      MOL     O4941      4941    0.00000000   15.999405
  4942     os         1      MOL     O4942      4942    0.00000000   15.999405
  4943     os         1      MOL     O4943      4943    0.00000000   15.999405
  4944     os         1      MOL     O4944      4944    0.00000000   15.999405
  4945     os         1      MOL     O4945      4945    0.00000000   15.999405
  4946     os         1      MOL     O4946      4946    0.00000000   15.999405
  4947     os         1      MOL     O4947      4947    0.00000000   15.999405
  4948     os         1      MOL     O4948      4948    0.00000000   15.999405
  4949     os         1      MOL     O4949      4949    0.00000000   15.999405
  4950     os         1      MOL     O4950      4950    0.00000000   15.999405
  4951     os         1      MOL     O4951      4951    0.00000000   15.999405
  4952     os         1      MOL     O4952      4952    0.00000000   15.999405
  4953     os         1      MOL     O4953      4953    0.00000000   15.999405
  4954     os         1      MOL     O4954      4954    0.00000000   15.999405
  4955     os         1      MOL     O4955      4955    0.00000000   15.999405
  4956     os         1      MOL     O4956      4956    0.00000000   15.999405
  4957     os         1      MOL     O4957      4957    0.00000000   15.999405
  4958     os         1      MOL     O4958      4958    0.00000000   15.999405
  4959     os         1      MOL     O4959      4959    0.00000000   15.999405
  4960     os         1      MOL     O4960      4960    0.00000000   15.999405
  4961     UF_Si      1      MOL     Si4961     4961    0.00000000   28.085499
  4962     UF_Si      1      MOL     Si4962     4962    0.00000000   28.085499
  4963     UF_Si      1      MOL     Si4963     4963    0.00000000   28.085499
  4964     UF_Si      1      MOL     Si4964     4964    0.00000000   28.085499
  4965     UF_Si      1      MOL     Si4965     4965    0.00000000   28.085499
  4966     UF_Si      1      MOL     Si4966     4966    0.00000000   28.085499
  4967     UF_Si      1      MOL     Si4967     4967    0.00000000   28.085499
  4968     UF_Si      1      MOL     Si4968     4968    0.00000000   28.085499
  4969     UF_Si      1      MOL     Si4969     4969    0.00000000   28.085499
  4970     UF_Si      1      MOL     Si4970     4970    0.00000000   28.085499
  4971     UF_Si      1      MOL     Si4971     4971    0.00000000   28.085499
  4972     UF_Si      1      MOL     Si4972     4972    0.00000000   28.085499
  4973     os         1      MOL     O4973      4973    0.00000000   15.999405
  4974     os         1      MOL     O4974      4974    0.00000000   15.999405
  4975     os         1      MOL     O4975      4975    0.00000000   15.999405
  4976     os         1      MOL     O4976      4976    0.00000000   15.999405
  4977     os         1      MOL     O4977      4977    0.00000000   15.999405
  4978     os         1      MOL     O4978      4978    0.00000000   15.999405
  4979     os         1      MOL     O4979      4979    0.00000000   15.999405
  4980     os         1      MOL     O4980      4980    0.00000000   15.999405
  4981     os         1      MOL     O4981      4981    0.00000000   15.999405
  4982     os         1      MOL     O4982      4982    0.00000000   15.999405
  4983     os         1      MOL     O4983      4983    0.00000000   15.999405
  4984     os         1      MOL     O4984      4984    0.00000000   15.999405
  4985     os         1      MOL     O4985      4985    0.00000000   15.999405
  4986     os         1      MOL     O4986      4986    0.00000000   15.999405
  4987     os         1      MOL     O4987      4987    0.00000000   15.999405
  4988     o          1      MOL     O4988      4988    0.00000000   15.999405
  4989     os         1      MOL     O4989      4989    0.00000000   15.999405
  4990     os         1      MOL     O4990      4990    0.00000000   15.999405
  4991     os         1      MOL     O4991      4991    0.00000000   15.999405
  4992     os         1      MOL     O4992      4992    0.00000000   15.999405
  4993     os         1      MOL     O4993      4993    0.00000000   15.999405
  4994     os         1      MOL     O4994      4994    0.00000000   15.999405
  4995     os         1      MOL     O4995      4995    0.00000000   15.999405
  4996     os         1      MOL     O4996      4996    0.00000000   15.999405
  4997     os         1      MOL     O4997      4997    0.00000000   15.999405
  4998     os         1      MOL     O4998      4998    0.00000000   15.999405
  4999     UF_Si      1      MOL     Si4999     4999    0.00000000   28.085499
  5000     UF_Si      1      MOL     Si5000     5000    0.00000000   28.085499
  5001     UF_Si      1      MOL     Si5001     5001    0.00000000   28.085499
  5002     UF_Si      1      MOL     Si5002     5002    0.00000000   28.085499
  5003     UF_Si      1      MOL     Si5003     5003    0.00000000   28.085499
  5004     UF_Si      1      MOL     Si5004     5004    0.00000000   28.085499
  5005     UF_Si      1      MOL     Si5005     5005    0.00000000   28.085499
  5006     UF_Si      1      MOL     Si5006     5006    0.00000000   28.085499
  5007     UF_Si      1      MOL     Si5007     5007    0.00000000   28.085499
  5008     UF_Si      1      MOL     Si5008     5008    0.00000000   28.085499
  5009     UF_Si      1      MOL     Si5009     5009    0.00000000   28.085499
  5010     UF_Si      1      MOL     Si5010     5010    0.00000000   28.085499
  5011     os         1      MOL     O5011      5011    0.00000000   15.999405
  5012     os         1      MOL     O5012      5012    0.00000000   15.999405
  5013     os         1      MOL     O5013      5013    0.00000000   15.999405
  5014     os         1      MOL     O5014      5014    0.00000000   15.999405
  5015     os         1      MOL     O5015      5015    0.00000000   15.999405
  5016     os         1      MOL     O5016      5016    0.00000000   15.999405
  5017     os         1      MOL     O5017      5017    0.00000000   15.999405
  5018     os         1      MOL     O5018      5018    0.00000000   15.999405
  5019     os         1      MOL     O5019      5019    0.00000000   15.999405
  5020     os         1      MOL     O5020      5020    0.00000000   15.999405
  5021     os         1      MOL     O5021      5021    0.00000000   15.999405
  5022     os         1      MOL     O5022      5022    0.00000000   15.999405
  5023     os         1      MOL     O5023      5023    0.00000000   15.999405
  5024     os         1      MOL     O5024      5024    0.00000000   15.999405
  5025     os         1      MOL     O5025      5025    0.00000000   15.999405
  5026     os         1      MOL     O5026      5026    0.00000000   15.999405
  5027     os         1      MOL     O5027      5027    0.00000000   15.999405
  5028     os         1      MOL     O5028      5028    0.00000000   15.999405
  5029     os         1      MOL     O5029      5029    0.00000000   15.999405
  5030     os         1      MOL     O5030      5030    0.00000000   15.999405
  5031     os         1      MOL     O5031      5031    0.00000000   15.999405
  5032     os         1      MOL     O5032      5032    0.00000000   15.999405
  5033     os         1      MOL     O5033      5033    0.00000000   15.999405
  5034     os         1      MOL     O5034      5034    0.00000000   15.999405
  5035     os         1      MOL     O5035      5035    0.00000000   15.999405
  5036     os         1      MOL     O5036      5036    0.00000000   15.999405
  5037     UF_Si      1      MOL     Si5037     5037    0.00000000   28.085499
  5038     UF_Si      1      MOL     Si5038     5038    0.00000000   28.085499
  5039     UF_Si      1      MOL     Si5039     5039    0.00000000   28.085499
  5040     UF_Si      1      MOL     Si5040     5040    0.00000000   28.085499
  5041     UF_Si      1      MOL     Si5041     5041    0.00000000   28.085499
  5042     UF_Si      1      MOL     Si5042     5042    0.00000000   28.085499
  5043     UF_Si      1      MOL     Si5043     5043    0.00000000   28.085499
  5044     UF_Si      1      MOL     Si5044     5044    0.00000000   28.085499
  5045     UF_Si      1      MOL     Si5045     5045    0.00000000   28.085499
  5046     UF_Si      1      MOL     Si5046     5046    0.00000000   28.085499
  5047     UF_Si      1      MOL     Si5047     5047    0.00000000   28.085499
  5048     UF_Si      1      MOL     Si5048     5048    0.00000000   28.085499
  5049     os         1      MOL     O5049      5049    0.00000000   15.999405
  5050     os         1      MOL     O5050      5050    0.00000000   15.999405
  5051     os         1      MOL     O5051      5051    0.00000000   15.999405
  5052     os         1      MOL     O5052      5052    0.00000000   15.999405
  5053     os         1      MOL     O5053      5053    0.00000000   15.999405
  5054     os         1      MOL     O5054      5054    0.00000000   15.999405
  5055     os         1      MOL     O5055      5055    0.00000000   15.999405
  5056     os         1      MOL     O5056      5056    0.00000000   15.999405
  5057     os         1      MOL     O5057      5057    0.00000000   15.999405
  5058     os         1      MOL     O5058      5058    0.00000000   15.999405
  5059     os         1      MOL     O5059      5059    0.00000000   15.999405
  5060     os         1      MOL     O5060      5060    0.00000000   15.999405
  5061     os         1      MOL     O5061      5061    0.00000000   15.999405
  5062     os         1      MOL     O5062      5062    0.00000000   15.999405
  5063     os         1      MOL     O5063      5063    0.00000000   15.999405
  5064     os         1      MOL     O5064      5064    0.00000000   15.999405
  5065     os         1      MOL     O5065      5065    0.00000000   15.999405
  5066     os         1      MOL     O5066      5066    0.00000000   15.999405
  5067     os         1      MOL     O5067      5067    0.00000000   15.999405
  5068     os         1      MOL     O5068      5068    0.00000000   15.999405
  5069     os         1      MOL     O5069      5069    0.00000000   15.999405
  5070     os         1      MOL     O5070      5070    0.00000000   15.999405
  5071     UF_Si      1      MOL     Si5071     5071    0.00000000   28.085499
  5072     UF_Si      1      MOL     Si5072     5072    0.00000000   28.085499
  5073     UF_Si      1      MOL     Si5073     5073    0.00000000   28.085499
  5074     UF_Si      1      MOL     Si5074     5074    0.00000000   28.085499
  5075     UF_Si      1      MOL     Si5075     5075    0.00000000   28.085499
  5076     UF_Si      1      MOL     Si5076     5076    0.00000000   28.085499
  5077     UF_Si      1      MOL     Si5077     5077    0.00000000   28.085499
  5078     UF_Si      1      MOL     Si5078     5078    0.00000000   28.085499
  5079     UF_Si      1      MOL     Si5079     5079    0.00000000   28.085499
  5080     UF_Si      1      MOL     Si5080     5080    0.00000000   28.085499
  5081     UF_Si      1      MOL     Si5081     5081    0.00000000   28.085499
  5082     UF_Si      1      MOL     Si5082     5082    0.00000000   28.085499
  5083     os         1      MOL     O5083      5083    0.00000000   15.999405
  5084     os         1      MOL     O5084      5084    0.00000000   15.999405
  5085     os         1      MOL     O5085      5085    0.00000000   15.999405
  5086     os         1      MOL     O5086      5086    0.00000000   15.999405
  5087     os         1      MOL     O5087      5087    0.00000000   15.999405
  5088     os         1      MOL     O5088      5088    0.00000000   15.999405
  5089     os         1      MOL     O5089      5089    0.00000000   15.999405
  5090     os         1      MOL     O5090      5090    0.00000000   15.999405
  5091     os         1      MOL     O5091      5091    0.00000000   15.999405
  5092     os         1      MOL     O5092      5092    0.00000000   15.999405
  5093     os         1      MOL     O5093      5093    0.00000000   15.999405
  5094     os         1      MOL     O5094      5094    0.00000000   15.999405
  5095     os         1      MOL     O5095      5095    0.00000000   15.999405
  5096     os         1      MOL     O5096      5096    0.00000000   15.999405
  5097     os         1      MOL     O5097      5097    0.00000000   15.999405
  5098     o          1      MOL     O5098      5098    0.00000000   15.999405
  5099     os         1      MOL     O5099      5099    0.00000000   15.999405
  5100     os         1      MOL     O5100      5100    0.00000000   15.999405
  5101     os         1      MOL     O5101      5101    0.00000000   15.999405
  5102     os         1      MOL     O5102      5102    0.00000000   15.999405
  5103     os         1      MOL     O5103      5103    0.00000000   15.999405
  5104     os         1      MOL     O5104      5104    0.00000000   15.999405
  5105     UF_Si      1      MOL     Si5105     5105    0.00000000   28.085499
  5106     UF_Si      1      MOL     Si5106     5106    0.00000000   28.085499
  5107     UF_Si      1      MOL     Si5107     5107    0.00000000   28.085499
  5108     UF_Si      1      MOL     Si5108     5108    0.00000000   28.085499
  5109     UF_Si      1      MOL     Si5109     5109    0.00000000   28.085499
  5110     UF_Si      1      MOL     Si5110     5110    0.00000000   28.085499
  5111     UF_Si      1      MOL     Si5111     5111    0.00000000   28.085499
  5112     UF_Si      1      MOL     Si5112     5112    0.00000000   28.085499
  5113     UF_Si      1      MOL     Si5113     5113    0.00000000   28.085499
  5114     UF_Si      1      MOL     Si5114     5114    0.00000000   28.085499
  5115     UF_Si      1      MOL     Si5115     5115    0.00000000   28.085499
  5116     UF_Si      1      MOL     Si5116     5116    0.00000000   28.085499
  5117     o          1      MOL     O5117      5117    0.00000000   15.999405
  5118     os         1      MOL     O5118      5118    0.00000000   15.999405
  5119     os         1      MOL     O5119      5119    0.00000000   15.999405
  5120     os         1      MOL     O5120      5120    0.00000000   15.999405
  5121     os         1      MOL     O5121      5121    0.00000000   15.999405
  5122     os         1      MOL     O5122      5122    0.00000000   15.999405
  5123     os         1      MOL     O5123      5123    0.00000000   15.999405
  5124     os         1      MOL     O5124      5124    0.00000000   15.999405
  5125     os         1      MOL     O5125      5125    0.00000000   15.999405
  5126     os         1      MOL     O5126      5126    0.00000000   15.999405
  5127     os         1      MOL     O5127      5127    0.00000000   15.999405
  5128     os         1      MOL     O5128      5128    0.00000000   15.999405
  5129     os         1      MOL     O5129      5129    0.00000000   15.999405
  5130     os         1      MOL     O5130      5130    0.00000000   15.999405
  5131     os         1      MOL     O5131      5131    0.00000000   15.999405
  5132     os         1      MOL     O5132      5132    0.00000000   15.999405
  5133     os         1      MOL     O5133      5133    0.00000000   15.999405
  5134     os         1      MOL     O5134      5134    0.00000000   15.999405
  5135     os         1      MOL     O5135      5135    0.00000000   15.999405
  5136     os         1      MOL     O5136      5136    0.00000000   15.999405
  5137     os         1      MOL     O5137      5137    0.00000000   15.999405
  5138     os         1      MOL     O5138      5138    0.00000000   15.999405
  5139     UF_Si      1      MOL     Si5139     5139    0.00000000   28.085499
  5140     UF_Si      1      MOL     Si5140     5140    0.00000000   28.085499
  5141     UF_Si      1      MOL     Si5141     5141    0.00000000   28.085499
  5142     UF_Si      1      MOL     Si5142     5142    0.00000000   28.085499
  5143     UF_Si      1      MOL     Si5143     5143    0.00000000   28.085499
  5144     UF_Si      1      MOL     Si5144     5144    0.00000000   28.085499
  5145     UF_Si      1      MOL     Si5145     5145    0.00000000   28.085499
  5146     UF_Si      1      MOL     Si5146     5146    0.00000000   28.085499
  5147     UF_Si      1      MOL     Si5147     5147    0.00000000   28.085499
  5148     UF_Si      1      MOL     Si5148     5148    0.00000000   28.085499
  5149     UF_Si      1      MOL     Si5149     5149    0.00000000   28.085499
  5150     UF_Si      1      MOL     Si5150     5150    0.00000000   28.085499
  5151     os         1      MOL     O5151      5151    0.00000000   15.999405
  5152     os         1      MOL     O5152      5152    0.00000000   15.999405
  5153     os         1      MOL     O5153      5153    0.00000000   15.999405
  5154     os         1      MOL     O5154      5154    0.00000000   15.999405
  5155     os         1      MOL     O5155      5155    0.00000000   15.999405
  5156     os         1      MOL     O5156      5156    0.00000000   15.999405
  5157     os         1      MOL     O5157      5157    0.00000000   15.999405
  5158     os         1      MOL     O5158      5158    0.00000000   15.999405
  5159     os         1      MOL     O5159      5159    0.00000000   15.999405
  5160     os         1      MOL     O5160      5160    0.00000000   15.999405
  5161     os         1      MOL     O5161      5161    0.00000000   15.999405
  5162     os         1      MOL     O5162      5162    0.00000000   15.999405
  5163     os         1      MOL     O5163      5163    0.00000000   15.999405
  5164     os         1      MOL     O5164      5164    0.00000000   15.999405
  5165     os         1      MOL     O5165      5165    0.00000000   15.999405
  5166     os         1      MOL     O5166      5166    0.00000000   15.999405
  5167     os         1      MOL     O5167      5167    0.00000000   15.999405
  5168     os         1      MOL     O5168      5168    0.00000000   15.999405
  5169     os         1      MOL     O5169      5169    0.00000000   15.999405
  5170     os         1      MOL     O5170      5170    0.00000000   15.999405
  5171     os         1      MOL     O5171      5171    0.00000000   15.999405
  5172     os         1      MOL     O5172      5172    0.00000000   15.999405
  5173     UF_Si      1      MOL     Si5173     5173    0.00000000   28.085499
  5174     UF_Si      1      MOL     Si5174     5174    0.00000000   28.085499
  5175     UF_Si      1      MOL     Si5175     5175    0.00000000   28.085499
  5176     UF_Si      1      MOL     Si5176     5176    0.00000000   28.085499
  5177     UF_Si      1      MOL     Si5177     5177    0.00000000   28.085499
  5178     UF_Si      1      MOL     Si5178     5178    0.00000000   28.085499
  5179     UF_Si      1      MOL     Si5179     5179    0.00000000   28.085499
  5180     UF_Si      1      MOL     Si5180     5180    0.00000000   28.085499
  5181     UF_Si      1      MOL     Si5181     5181    0.00000000   28.085499
  5182     UF_Si      1      MOL     Si5182     5182    0.00000000   28.085499
  5183     UF_Si      1      MOL     Si5183     5183    0.00000000   28.085499
  5184     UF_Si      1      MOL     Si5184     5184    0.00000000   28.085499
  5185     os         1      MOL     O5185      5185    0.00000000   15.999405
  5186     os         1      MOL     O5186      5186    0.00000000   15.999405
  5187     os         1      MOL     O5187      5187    0.00000000   15.999405
  5188     os         1      MOL     O5188      5188    0.00000000   15.999405
  5189     os         1      MOL     O5189      5189    0.00000000   15.999405
  5190     os         1      MOL     O5190      5190    0.00000000   15.999405
  5191     os         1      MOL     O5191      5191    0.00000000   15.999405
  5192     os         1      MOL     O5192      5192    0.00000000   15.999405
  5193     os         1      MOL     O5193      5193    0.00000000   15.999405
  5194     os         1      MOL     O5194      5194    0.00000000   15.999405
  5195     os         1      MOL     O5195      5195    0.00000000   15.999405
  5196     os         1      MOL     O5196      5196    0.00000000   15.999405
  5197     os         1      MOL     O5197      5197    0.00000000   15.999405
  5198     os         1      MOL     O5198      5198    0.00000000   15.999405
  5199     os         1      MOL     O5199      5199    0.00000000   15.999405
  5200     os         1      MOL     O5200      5200    0.00000000   15.999405
  5201     os         1      MOL     O5201      5201    0.00000000   15.999405
  5202     os         1      MOL     O5202      5202    0.00000000   15.999405
  5203     os         1      MOL     O5203      5203    0.00000000   15.999405
  5204     os         1      MOL     O5204      5204    0.00000000   15.999405
  5205     os         1      MOL     O5205      5205    0.00000000   15.999405
  5206     os         1      MOL     O5206      5206    0.00000000   15.999405
  5207     os         1      MOL     O5207      5207    0.00000000   15.999405
  5208     os         1      MOL     O5208      5208    0.00000000   15.999405
  5209     os         1      MOL     O5209      5209    0.00000000   15.999405
  5210     os         1      MOL     O5210      5210    0.00000000   15.999405
  5211     UF_Si      1      MOL     Si5211     5211    0.00000000   28.085499
  5212     UF_Si      1      MOL     Si5212     5212    0.00000000   28.085499
  5213     UF_Si      1      MOL     Si5213     5213    0.00000000   28.085499
  5214     UF_Si      1      MOL     Si5214     5214    0.00000000   28.085499
  5215     UF_Si      1      MOL     Si5215     5215    0.00000000   28.085499
  5216     UF_Si      1      MOL     Si5216     5216    0.00000000   28.085499
  5217     UF_Si      1      MOL     Si5217     5217    0.00000000   28.085499
  5218     UF_Si      1      MOL     Si5218     5218    0.00000000   28.085499
  5219     UF_Si      1      MOL     Si5219     5219    0.00000000   28.085499
  5220     UF_Si      1      MOL     Si5220     5220    0.00000000   28.085499
  5221     UF_Si      1      MOL     Si5221     5221    0.00000000   28.085499
  5222     UF_Si      1      MOL     Si5222     5222    0.00000000   28.085499
  5223     o          1      MOL     O5223      5223    0.00000000   15.999405
  5224     os         1      MOL     O5224      5224    0.00000000   15.999405
  5225     os         1      MOL     O5225      5225    0.00000000   15.999405
  5226     os         1      MOL     O5226      5226    0.00000000   15.999405
  5227     os         1      MOL     O5227      5227    0.00000000   15.999405
  5228     os         1      MOL     O5228      5228    0.00000000   15.999405
  5229     os         1      MOL     O5229      5229    0.00000000   15.999405
  5230     os         1      MOL     O5230      5230    0.00000000   15.999405
  5231     os         1      MOL     O5231      5231    0.00000000   15.999405
  5232     os         1      MOL     O5232      5232    0.00000000   15.999405
  5233     os         1      MOL     O5233      5233    0.00000000   15.999405
  5234     os         1      MOL     O5234      5234    0.00000000   15.999405
  5235     os         1      MOL     O5235      5235    0.00000000   15.999405
  5236     os         1      MOL     O5236      5236    0.00000000   15.999405
  5237     os         1      MOL     O5237      5237    0.00000000   15.999405
  5238     os         1      MOL     O5238      5238    0.00000000   15.999405
  5239     os         1      MOL     O5239      5239    0.00000000   15.999405
  5240     os         1      MOL     O5240      5240    0.00000000   15.999405
  5241     os         1      MOL     O5241      5241    0.00000000   15.999405
  5242     os         1      MOL     O5242      5242    0.00000000   15.999405
  5243     os         1      MOL     O5243      5243    0.00000000   15.999405
  5244     os         1      MOL     O5244      5244    0.00000000   15.999405
  5245     os         1      MOL     O5245      5245    0.00000000   15.999405
  5246     os         1      MOL     O5246      5246    0.00000000   15.999405
  5247     os         1      MOL     O5247      5247    0.00000000   15.999405
  5248     os         1      MOL     O5248      5248    0.00000000   15.999405
  5249     UF_Si      1      MOL     Si5249     5249    0.00000000   28.085499
  5250     UF_Si      1      MOL     Si5250     5250    0.00000000   28.085499
  5251     UF_Si      1      MOL     Si5251     5251    0.00000000   28.085499
  5252     UF_Si      1      MOL     Si5252     5252    0.00000000   28.085499
  5253     UF_Si      1      MOL     Si5253     5253    0.00000000   28.085499
  5254     UF_Si      1      MOL     Si5254     5254    0.00000000   28.085499
  5255     UF_Si      1      MOL     Si5255     5255    0.00000000   28.085499
  5256     UF_Si      1      MOL     Si5256     5256    0.00000000   28.085499
  5257     UF_Si      1      MOL     Si5257     5257    0.00000000   28.085499
  5258     UF_Si      1      MOL     Si5258     5258    0.00000000   28.085499
  5259     UF_Si      1      MOL     Si5259     5259    0.00000000   28.085499
  5260     UF_Si      1      MOL     Si5260     5260    0.00000000   28.085499
  5261     os         1      MOL     O5261      5261    0.00000000   15.999405
  5262     os         1      MOL     O5262      5262    0.00000000   15.999405
  5263     os         1      MOL     O5263      5263    0.00000000   15.999405
  5264     os         1      MOL     O5264      5264    0.00000000   15.999405
  5265     os         1      MOL     O5265      5265    0.00000000   15.999405
  5266     os         1      MOL     O5266      5266    0.00000000   15.999405
  5267     os         1      MOL     O5267      5267    0.00000000   15.999405
  5268     os         1      MOL     O5268      5268    0.00000000   15.999405
  5269     os         1      MOL     O5269      5269    0.00000000   15.999405
  5270     os         1      MOL     O5270      5270    0.00000000   15.999405
  5271     os         1      MOL     O5271      5271    0.00000000   15.999405
  5272     os         1      MOL     O5272      5272    0.00000000   15.999405
  5273     os         1      MOL     O5273      5273    0.00000000   15.999405
  5274     os         1      MOL     O5274      5274    0.00000000   15.999405
  5275     os         1      MOL     O5275      5275    0.00000000   15.999405
  5276     o          1      MOL     O5276      5276    0.00000000   15.999405
  5277     os         1      MOL     O5277      5277    0.00000000   15.999405
  5278     os         1      MOL     O5278      5278    0.00000000   15.999405
  5279     os         1      MOL     O5279      5279    0.00000000   15.999405
  5280     os         1      MOL     O5280      5280    0.00000000   15.999405
  5281     os         1      MOL     O5281      5281    0.00000000   15.999405
  5282     os         1      MOL     O5282      5282    0.00000000   15.999405
  5283     os         1      MOL     O5283      5283    0.00000000   15.999405
  5284     os         1      MOL     O5284      5284    0.00000000   15.999405
  5285     os         1      MOL     O5285      5285    0.00000000   15.999405
  5286     os         1      MOL     O5286      5286    0.00000000   15.999405
  5287     UF_Si      1      MOL     Si5287     5287    0.00000000   28.085499
  5288     UF_Si      1      MOL     Si5288     5288    0.00000000   28.085499
  5289     UF_Si      1      MOL     Si5289     5289    0.00000000   28.085499
  5290     UF_Si      1      MOL     Si5290     5290    0.00000000   28.085499
  5291     UF_Si      1      MOL     Si5291     5291    0.00000000   28.085499
  5292     UF_Si      1      MOL     Si5292     5292    0.00000000   28.085499
  5293     UF_Si      1      MOL     Si5293     5293    0.00000000   28.085499
  5294     UF_Si      1      MOL     Si5294     5294    0.00000000   28.085499
  5295     UF_Si      1      MOL     Si5295     5295    0.00000000   28.085499
  5296     UF_Si      1      MOL     Si5296     5296    0.00000000   28.085499
  5297     UF_Si      1      MOL     Si5297     5297    0.00000000   28.085499
  5298     UF_Si      1      MOL     Si5298     5298    0.00000000   28.085499
  5299     os         1      MOL     O5299      5299    0.00000000   15.999405
  5300     os         1      MOL     O5300      5300    0.00000000   15.999405
  5301     os         1      MOL     O5301      5301    0.00000000   15.999405
  5302     os         1      MOL     O5302      5302    0.00000000   15.999405
  5303     os         1      MOL     O5303      5303    0.00000000   15.999405
  5304     os         1      MOL     O5304      5304    0.00000000   15.999405
  5305     os         1      MOL     O5305      5305    0.00000000   15.999405
  5306     os         1      MOL     O5306      5306    0.00000000   15.999405
  5307     os         1      MOL     O5307      5307    0.00000000   15.999405
  5308     os         1      MOL     O5308      5308    0.00000000   15.999405
  5309     os         1      MOL     O5309      5309    0.00000000   15.999405
  5310     os         1      MOL     O5310      5310    0.00000000   15.999405
  5311     os         1      MOL     O5311      5311    0.00000000   15.999405
  5312     os         1      MOL     O5312      5312    0.00000000   15.999405
  5313     os         1      MOL     O5313      5313    0.00000000   15.999405
  5314     os         1      MOL     O5314      5314    0.00000000   15.999405
  5315     os         1      MOL     O5315      5315    0.00000000   15.999405
  5316     os         1      MOL     O5316      5316    0.00000000   15.999405
  5317     os         1      MOL     O5317      5317    0.00000000   15.999405
  5318     os         1      MOL     O5318      5318    0.00000000   15.999405
  5319     os         1      MOL     O5319      5319    0.00000000   15.999405
  5320     os         1      MOL     O5320      5320    0.00000000   15.999405
  5321     os         1      MOL     O5321      5321    0.00000000   15.999405
  5322     os         1      MOL     O5322      5322    0.00000000   15.999405
  5323     os         1      MOL     O5323      5323    0.00000000   15.999405
  5324     os         1      MOL     O5324      5324    0.00000000   15.999405
  5325     UF_Si      1      MOL     Si5325     5325    0.00000000   28.085499
  5326     UF_Si      1      MOL     Si5326     5326    0.00000000   28.085499
  5327     UF_Si      1      MOL     Si5327     5327    0.00000000   28.085499
  5328     UF_Si      1      MOL     Si5328     5328    0.00000000   28.085499
  5329     UF_Si      1      MOL     Si5329     5329    0.00000000   28.085499
  5330     UF_Si      1      MOL     Si5330     5330    0.00000000   28.085499
  5331     UF_Si      1      MOL     Si5331     5331    0.00000000   28.085499
  5332     UF_Si      1      MOL     Si5332     5332    0.00000000   28.085499
  5333     UF_Si      1      MOL     Si5333     5333    0.00000000   28.085499
  5334     UF_Si      1      MOL     Si5334     5334    0.00000000   28.085499
  5335     UF_Si      1      MOL     Si5335     5335    0.00000000   28.085499
  5336     UF_Si      1      MOL     Si5336     5336    0.00000000   28.085499
  5337     os         1      MOL     O5337      5337    0.00000000   15.999405
  5338     os         1      MOL     O5338      5338    0.00000000   15.999405
  5339     os         1      MOL     O5339      5339    0.00000000   15.999405
  5340     os         1      MOL     O5340      5340    0.00000000   15.999405
  5341     os         1      MOL     O5341      5341    0.00000000   15.999405
  5342     os         1      MOL     O5342      5342    0.00000000   15.999405
  5343     os         1      MOL     O5343      5343    0.00000000   15.999405
  5344     os         1      MOL     O5344      5344    0.00000000   15.999405
  5345     os         1      MOL     O5345      5345    0.00000000   15.999405
  5346     os         1      MOL     O5346      5346    0.00000000   15.999405
  5347     os         1      MOL     O5347      5347    0.00000000   15.999405
  5348     os         1      MOL     O5348      5348    0.00000000   15.999405
  5349     os         1      MOL     O5349      5349    0.00000000   15.999405
  5350     os         1      MOL     O5350      5350    0.00000000   15.999405
  5351     os         1      MOL     O5351      5351    0.00000000   15.999405
  5352     os         1      MOL     O5352      5352    0.00000000   15.999405
  5353     os         1      MOL     O5353      5353    0.00000000   15.999405
  5354     os         1      MOL     O5354      5354    0.00000000   15.999405
  5355     os         1      MOL     O5355      5355    0.00000000   15.999405
  5356     os         1      MOL     O5356      5356    0.00000000   15.999405
  5357     os         1      MOL     O5357      5357    0.00000000   15.999405
  5358     os         1      MOL     O5358      5358    0.00000000   15.999405
  5359     UF_Si      1      MOL     Si5359     5359    0.00000000   28.085499
  5360     UF_Si      1      MOL     Si5360     5360    0.00000000   28.085499
  5361     UF_Si      1      MOL     Si5361     5361    0.00000000   28.085499
  5362     UF_Si      1      MOL     Si5362     5362    0.00000000   28.085499
  5363     UF_Si      1      MOL     Si5363     5363    0.00000000   28.085499
  5364     UF_Si      1      MOL     Si5364     5364    0.00000000   28.085499
  5365     UF_Si      1      MOL     Si5365     5365    0.00000000   28.085499
  5366     UF_Si      1      MOL     Si5366     5366    0.00000000   28.085499
  5367     UF_Si      1      MOL     Si5367     5367    0.00000000   28.085499
  5368     UF_Si      1      MOL     Si5368     5368    0.00000000   28.085499
  5369     UF_Si      1      MOL     Si5369     5369    0.00000000   28.085499
  5370     UF_Si      1      MOL     Si5370     5370    0.00000000   28.085499
  5371     os         1      MOL     O5371      5371    0.00000000   15.999405
  5372     os         1      MOL     O5372      5372    0.00000000   15.999405
  5373     os         1      MOL     O5373      5373    0.00000000   15.999405
  5374     os         1      MOL     O5374      5374    0.00000000   15.999405
  5375     os         1      MOL     O5375      5375    0.00000000   15.999405
  5376     os         1      MOL     O5376      5376    0.00000000   15.999405
  5377     os         1      MOL     O5377      5377    0.00000000   15.999405
  5378     os         1      MOL     O5378      5378    0.00000000   15.999405
  5379     os         1      MOL     O5379      5379    0.00000000   15.999405
  5380     os         1      MOL     O5380      5380    0.00000000   15.999405
  5381     os         1      MOL     O5381      5381    0.00000000   15.999405
  5382     os         1      MOL     O5382      5382    0.00000000   15.999405
  5383     os         1      MOL     O5383      5383    0.00000000   15.999405
  5384     os         1      MOL     O5384      5384    0.00000000   15.999405
  5385     os         1      MOL     O5385      5385    0.00000000   15.999405
  5386     o          1      MOL     O5386      5386    0.00000000   15.999405
  5387     os         1      MOL     O5387      5387    0.00000000   15.999405
  5388     os         1      MOL     O5388      5388    0.00000000   15.999405
  5389     os         1      MOL     O5389      5389    0.00000000   15.999405
  5390     os         1      MOL     O5390      5390    0.00000000   15.999405
  5391     os         1      MOL     O5391      5391    0.00000000   15.999405
  5392     os         1      MOL     O5392      5392    0.00000000   15.999405
  5393     UF_Si      1      MOL     Si5393     5393    0.00000000   28.085499
  5394     UF_Si      1      MOL     Si5394     5394    0.00000000   28.085499
  5395     UF_Si      1      MOL     Si5395     5395    0.00000000   28.085499
  5396     UF_Si      1      MOL     Si5396     5396    0.00000000   28.085499
  5397     UF_Si      1      MOL     Si5397     5397    0.00000000   28.085499
  5398     UF_Si      1      MOL     Si5398     5398    0.00000000   28.085499
  5399     UF_Si      1      MOL     Si5399     5399    0.00000000   28.085499
  5400     UF_Si      1      MOL     Si5400     5400    0.00000000   28.085499
  5401     UF_Si      1      MOL     Si5401     5401    0.00000000   28.085499
  5402     UF_Si      1      MOL     Si5402     5402    0.00000000   28.085499
  5403     UF_Si      1      MOL     Si5403     5403    0.00000000   28.085499
  5404     UF_Si      1      MOL     Si5404     5404    0.00000000   28.085499
  5405     o          1      MOL     O5405      5405    0.00000000   15.999405
  5406     os         1      MOL     O5406      5406    0.00000000   15.999405
  5407     os         1      MOL     O5407      5407    0.00000000   15.999405
  5408     os         1      MOL     O5408      5408    0.00000000   15.999405
  5409     os         1      MOL     O5409      5409    0.00000000   15.999405
  5410     os         1      MOL     O5410      5410    0.00000000   15.999405
  5411     os         1      MOL     O5411      5411    0.00000000   15.999405
  5412     os         1      MOL     O5412      5412    0.00000000   15.999405
  5413     os         1      MOL     O5413      5413    0.00000000   15.999405
  5414     os         1      MOL     O5414      5414    0.00000000   15.999405
  5415     os         1      MOL     O5415      5415    0.00000000   15.999405
  5416     os         1      MOL     O5416      5416    0.00000000   15.999405
  5417     os         1      MOL     O5417      5417    0.00000000   15.999405
  5418     os         1      MOL     O5418      5418    0.00000000   15.999405
  5419     os         1      MOL     O5419      5419    0.00000000   15.999405
  5420     os         1      MOL     O5420      5420    0.00000000   15.999405
  5421     os         1      MOL     O5421      5421    0.00000000   15.999405
  5422     os         1      MOL     O5422      5422    0.00000000   15.999405
  5423     os         1      MOL     O5423      5423    0.00000000   15.999405
  5424     os         1      MOL     O5424      5424    0.00000000   15.999405
  5425     os         1      MOL     O5425      5425    0.00000000   15.999405
  5426     os         1      MOL     O5426      5426    0.00000000   15.999405
  5427     UF_Si      1      MOL     Si5427     5427    0.00000000   28.085499
  5428     UF_Si      1      MOL     Si5428     5428    0.00000000   28.085499
  5429     UF_Si      1      MOL     Si5429     5429    0.00000000   28.085499
  5430     UF_Si      1      MOL     Si5430     5430    0.00000000   28.085499
  5431     UF_Si      1      MOL     Si5431     5431    0.00000000   28.085499
  5432     UF_Si      1      MOL     Si5432     5432    0.00000000   28.085499
  5433     UF_Si      1      MOL     Si5433     5433    0.00000000   28.085499
  5434     UF_Si      1      MOL     Si5434     5434    0.00000000   28.085499
  5435     UF_Si      1      MOL     Si5435     5435    0.00000000   28.085499
  5436     UF_Si      1      MOL     Si5436     5436    0.00000000   28.085499
  5437     UF_Si      1      MOL     Si5437     5437    0.00000000   28.085499
  5438     UF_Si      1      MOL     Si5438     5438    0.00000000   28.085499
  5439     os         1      MOL     O5439      5439    0.00000000   15.999405
  5440     os         1      MOL     O5440      5440    0.00000000   15.999405
  5441     os         1      MOL     O5441      5441    0.00000000   15.999405
  5442     os         1      MOL     O5442      5442    0.00000000   15.999405
  5443     os         1      MOL     O5443      5443    0.00000000   15.999405
  5444     os         1      MOL     O5444      5444    0.00000000   15.999405
  5445     os         1      MOL     O5445      5445    0.00000000   15.999405
  5446     os         1      MOL     O5446      5446    0.00000000   15.999405
  5447     os         1      MOL     O5447      5447    0.00000000   15.999405
  5448     os         1      MOL     O5448      5448    0.00000000   15.999405
  5449     os         1      MOL     O5449      5449    0.00000000   15.999405
  5450     os         1      MOL     O5450      5450    0.00000000   15.999405
  5451     os         1      MOL     O5451      5451    0.00000000   15.999405
  5452     os         1      MOL     O5452      5452    0.00000000   15.999405
  5453     os         1      MOL     O5453      5453    0.00000000   15.999405
  5454     os         1      MOL     O5454      5454    0.00000000   15.999405
  5455     os         1      MOL     O5455      5455    0.00000000   15.999405
  5456     os         1      MOL     O5456      5456    0.00000000   15.999405
  5457     os         1      MOL     O5457      5457    0.00000000   15.999405
  5458     os         1      MOL     O5458      5458    0.00000000   15.999405
  5459     os         1      MOL     O5459      5459    0.00000000   15.999405
  5460     os         1      MOL     O5460      5460    0.00000000   15.999405
  5461     UF_Si      1      MOL     Si5461     5461    0.00000000   28.085499
  5462     UF_Si      1      MOL     Si5462     5462    0.00000000   28.085499
  5463     UF_Si      1      MOL     Si5463     5463    0.00000000   28.085499
  5464     UF_Si      1      MOL     Si5464     5464    0.00000000   28.085499
  5465     UF_Si      1      MOL     Si5465     5465    0.00000000   28.085499
  5466     UF_Si      1      MOL     Si5466     5466    0.00000000   28.085499
  5467     UF_Si      1      MOL     Si5467     5467    0.00000000   28.085499
  5468     UF_Si      1      MOL     Si5468     5468    0.00000000   28.085499
  5469     UF_Si      1      MOL     Si5469     5469    0.00000000   28.085499
  5470     UF_Si      1      MOL     Si5470     5470    0.00000000   28.085499
  5471     UF_Si      1      MOL     Si5471     5471    0.00000000   28.085499
  5472     UF_Si      1      MOL     Si5472     5472    0.00000000   28.085499
  5473     os         1      MOL     O5473      5473    0.00000000   15.999405
  5474     os         1      MOL     O5474      5474    0.00000000   15.999405
  5475     os         1      MOL     O5475      5475    0.00000000   15.999405
  5476     os         1      MOL     O5476      5476    0.00000000   15.999405
  5477     o          1      MOL     O5477      5477    0.00000000   15.999405
  5478     os         1      MOL     O5478      5478    0.00000000   15.999405
  5479     os         1      MOL     O5479      5479    0.00000000   15.999405
  5480     os         1      MOL     O5480      5480    0.00000000   15.999405
  5481     os         1      MOL     O5481      5481    0.00000000   15.999405
  5482     os         1      MOL     O5482      5482    0.00000000   15.999405
  5483     os         1      MOL     O5483      5483    0.00000000   15.999405
  5484     o          1      MOL     O5484      5484    0.00000000   15.999405
  5485     os         1      MOL     O5485      5485    0.00000000   15.999405
  5486     os         1      MOL     O5486      5486    0.00000000   15.999405
  5487     os         1      MOL     O5487      5487    0.00000000   15.999405
  5488     os         1      MOL     O5488      5488    0.00000000   15.999405
  5489     os         1      MOL     O5489      5489    0.00000000   15.999405
  5490     os         1      MOL     O5490      5490    0.00000000   15.999405
  5491     o          1      MOL     O5491      5491    0.00000000   15.999405
  5492     os         1      MOL     O5492      5492    0.00000000   15.999405
  5493     os         1      MOL     O5493      5493    0.00000000   15.999405
  5494     os         1      MOL     O5494      5494    0.00000000   15.999405
  5495     os         1      MOL     O5495      5495    0.00000000   15.999405
  5496     o          1      MOL     O5496      5496    0.00000000   15.999405
  5497     os         1      MOL     O5497      5497    0.00000000   15.999405
  5498     os         1      MOL     O5498      5498    0.00000000   15.999405
  5499     UF_Si      1      MOL     Si5499     5499    0.00000000   28.085499
  5500     UF_Si      1      MOL     Si5500     5500    0.00000000   28.085499
  5501     UF_Si      1      MOL     Si5501     5501    0.00000000   28.085499
  5502     UF_Si      1      MOL     Si5502     5502    0.00000000   28.085499
  5503     UF_Si      1      MOL     Si5503     5503    0.00000000   28.085499
  5504     UF_Si      1      MOL     Si5504     5504    0.00000000   28.085499
  5505     UF_Si      1      MOL     Si5505     5505    0.00000000   28.085499
  5506     UF_Si      1      MOL     Si5506     5506    0.00000000   28.085499
  5507     UF_Si      1      MOL     Si5507     5507    0.00000000   28.085499
  5508     UF_Si      1      MOL     Si5508     5508    0.00000000   28.085499
  5509     UF_Si      1      MOL     Si5509     5509    0.00000000   28.085499
  5510     UF_Si      1      MOL     Si5510     5510    0.00000000   28.085499
  5511     o          1      MOL     O5511      5511    0.00000000   15.999405
  5512     os         1      MOL     O5512      5512    0.00000000   15.999405
  5513     os         1      MOL     O5513      5513    0.00000000   15.999405
  5514     os         1      MOL     O5514      5514    0.00000000   15.999405
  5515     os         1      MOL     O5515      5515    0.00000000   15.999405
  5516     os         1      MOL     O5516      5516    0.00000000   15.999405
  5517     os         1      MOL     O5517      5517    0.00000000   15.999405
  5518     os         1      MOL     O5518      5518    0.00000000   15.999405
  5519     os         1      MOL     O5519      5519    0.00000000   15.999405
  5520     os         1      MOL     O5520      5520    0.00000000   15.999405
  5521     os         1      MOL     O5521      5521    0.00000000   15.999405
  5522     os         1      MOL     O5522      5522    0.00000000   15.999405
  5523     os         1      MOL     O5523      5523    0.00000000   15.999405
  5524     os         1      MOL     O5524      5524    0.00000000   15.999405
  5525     os         1      MOL     O5525      5525    0.00000000   15.999405
  5526     os         1      MOL     O5526      5526    0.00000000   15.999405
  5527     os         1      MOL     O5527      5527    0.00000000   15.999405
  5528     os         1      MOL     O5528      5528    0.00000000   15.999405
  5529     os         1      MOL     O5529      5529    0.00000000   15.999405
  5530     os         1      MOL     O5530      5530    0.00000000   15.999405
  5531     os         1      MOL     O5531      5531    0.00000000   15.999405
  5532     os         1      MOL     O5532      5532    0.00000000   15.999405
  5533     os         1      MOL     O5533      5533    0.00000000   15.999405
  5534     os         1      MOL     O5534      5534    0.00000000   15.999405
  5535     os         1      MOL     O5535      5535    0.00000000   15.999405
  5536     os         1      MOL     O5536      5536    0.00000000   15.999405
  5537     UF_Si      1      MOL     Si5537     5537    0.00000000   28.085499
  5538     UF_Si      1      MOL     Si5538     5538    0.00000000   28.085499
  5539     UF_Si      1      MOL     Si5539     5539    0.00000000   28.085499
  5540     UF_Si      1      MOL     Si5540     5540    0.00000000   28.085499
  5541     UF_Si      1      MOL     Si5541     5541    0.00000000   28.085499
  5542     UF_Si      1      MOL     Si5542     5542    0.00000000   28.085499
  5543     UF_Si      1      MOL     Si5543     5543    0.00000000   28.085499
  5544     UF_Si      1      MOL     Si5544     5544    0.00000000   28.085499
  5545     UF_Si      1      MOL     Si5545     5545    0.00000000   28.085499
  5546     UF_Si      1      MOL     Si5546     5546    0.00000000   28.085499
  5547     UF_Si      1      MOL     Si5547     5547    0.00000000   28.085499
  5548     UF_Si      1      MOL     Si5548     5548    0.00000000   28.085499
  5549     os         1      MOL     O5549      5549    0.00000000   15.999405
  5550     os         1      MOL     O5550      5550    0.00000000   15.999405
  5551     os         1      MOL     O5551      5551    0.00000000   15.999405
  5552     os         1      MOL     O5552      5552    0.00000000   15.999405
  5553     os         1      MOL     O5553      5553    0.00000000   15.999405
  5554     os         1      MOL     O5554      5554    0.00000000   15.999405
  5555     os         1      MOL     O5555      5555    0.00000000   15.999405
  5556     os         1      MOL     O5556      5556    0.00000000   15.999405
  5557     os         1      MOL     O5557      5557    0.00000000   15.999405
  5558     os         1      MOL     O5558      5558    0.00000000   15.999405
  5559     os         1      MOL     O5559      5559    0.00000000   15.999405
  5560     os         1      MOL     O5560      5560    0.00000000   15.999405
  5561     os         1      MOL     O5561      5561    0.00000000   15.999405
  5562     os         1      MOL     O5562      5562    0.00000000   15.999405
  5563     os         1      MOL     O5563      5563    0.00000000   15.999405
  5564     o          1      MOL     O5564      5564    0.00000000   15.999405
  5565     os         1      MOL     O5565      5565    0.00000000   15.999405
  5566     os         1      MOL     O5566      5566    0.00000000   15.999405
  5567     os         1      MOL     O5567      5567    0.00000000   15.999405
  5568     os         1      MOL     O5568      5568    0.00000000   15.999405
  5569     os         1      MOL     O5569      5569    0.00000000   15.999405
  5570     os         1      MOL     O5570      5570    0.00000000   15.999405
  5571     os         1      MOL     O5571      5571    0.00000000   15.999405
  5572     os         1      MOL     O5572      5572    0.00000000   15.999405
  5573     os         1      MOL     O5573      5573    0.00000000   15.999405
  5574     os         1      MOL     O5574      5574    0.00000000   15.999405
  5575     UF_Si      1      MOL     Si5575     5575    0.00000000   28.085499
  5576     UF_Si      1      MOL     Si5576     5576    0.00000000   28.085499
  5577     UF_Si      1      MOL     Si5577     5577    0.00000000   28.085499
  5578     UF_Si      1      MOL     Si5578     5578    0.00000000   28.085499
  5579     UF_Si      1      MOL     Si5579     5579    0.00000000   28.085499
  5580     UF_Si      1      MOL     Si5580     5580    0.00000000   28.085499
  5581     UF_Si      1      MOL     Si5581     5581    0.00000000   28.085499
  5582     UF_Si      1      MOL     Si5582     5582    0.00000000   28.085499
  5583     UF_Si      1      MOL     Si5583     5583    0.00000000   28.085499
  5584     UF_Si      1      MOL     Si5584     5584    0.00000000   28.085499
  5585     UF_Si      1      MOL     Si5585     5585    0.00000000   28.085499
  5586     UF_Si      1      MOL     Si5586     5586    0.00000000   28.085499
  5587     os         1      MOL     O5587      5587    0.00000000   15.999405
  5588     os         1      MOL     O5588      5588    0.00000000   15.999405
  5589     os         1      MOL     O5589      5589    0.00000000   15.999405
  5590     os         1      MOL     O5590      5590    0.00000000   15.999405
  5591     os         1      MOL     O5591      5591    0.00000000   15.999405
  5592     os         1      MOL     O5592      5592    0.00000000   15.999405
  5593     os         1      MOL     O5593      5593    0.00000000   15.999405
  5594     os         1      MOL     O5594      5594    0.00000000   15.999405
  5595     os         1      MOL     O5595      5595    0.00000000   15.999405
  5596     os         1      MOL     O5596      5596    0.00000000   15.999405
  5597     os         1      MOL     O5597      5597    0.00000000   15.999405
  5598     os         1      MOL     O5598      5598    0.00000000   15.999405
  5599     os         1      MOL     O5599      5599    0.00000000   15.999405
  5600     os         1      MOL     O5600      5600    0.00000000   15.999405
  5601     os         1      MOL     O5601      5601    0.00000000   15.999405
  5602     os         1      MOL     O5602      5602    0.00000000   15.999405
  5603     os         1      MOL     O5603      5603    0.00000000   15.999405
  5604     os         1      MOL     O5604      5604    0.00000000   15.999405
  5605     os         1      MOL     O5605      5605    0.00000000   15.999405
  5606     os         1      MOL     O5606      5606    0.00000000   15.999405
  5607     os         1      MOL     O5607      5607    0.00000000   15.999405
  5608     os         1      MOL     O5608      5608    0.00000000   15.999405
  5609     os         1      MOL     O5609      5609    0.00000000   15.999405
  5610     os         1      MOL     O5610      5610    0.00000000   15.999405
  5611     os         1      MOL     O5611      5611    0.00000000   15.999405
  5612     os         1      MOL     O5612      5612    0.00000000   15.999405
  5613     UF_Si      1      MOL     Si5613     5613    0.00000000   28.085499
  5614     UF_Si      1      MOL     Si5614     5614    0.00000000   28.085499
  5615     UF_Si      1      MOL     Si5615     5615    0.00000000   28.085499
  5616     UF_Si      1      MOL     Si5616     5616    0.00000000   28.085499
  5617     UF_Si      1      MOL     Si5617     5617    0.00000000   28.085499
  5618     UF_Si      1      MOL     Si5618     5618    0.00000000   28.085499
  5619     UF_Si      1      MOL     Si5619     5619    0.00000000   28.085499
  5620     UF_Si      1      MOL     Si5620     5620    0.00000000   28.085499
  5621     UF_Si      1      MOL     Si5621     5621    0.00000000   28.085499
  5622     UF_Si      1      MOL     Si5622     5622    0.00000000   28.085499
  5623     UF_Si      1      MOL     Si5623     5623    0.00000000   28.085499
  5624     UF_Si      1      MOL     Si5624     5624    0.00000000   28.085499
  5625     os         1      MOL     O5625      5625    0.00000000   15.999405
  5626     os         1      MOL     O5626      5626    0.00000000   15.999405
  5627     os         1      MOL     O5627      5627    0.00000000   15.999405
  5628     os         1      MOL     O5628      5628    0.00000000   15.999405
  5629     os         1      MOL     O5629      5629    0.00000000   15.999405
  5630     os         1      MOL     O5630      5630    0.00000000   15.999405
  5631     os         1      MOL     O5631      5631    0.00000000   15.999405
  5632     os         1      MOL     O5632      5632    0.00000000   15.999405
  5633     os         1      MOL     O5633      5633    0.00000000   15.999405
  5634     os         1      MOL     O5634      5634    0.00000000   15.999405
  5635     os         1      MOL     O5635      5635    0.00000000   15.999405
  5636     os         1      MOL     O5636      5636    0.00000000   15.999405
  5637     os         1      MOL     O5637      5637    0.00000000   15.999405
  5638     os         1      MOL     O5638      5638    0.00000000   15.999405
  5639     os         1      MOL     O5639      5639    0.00000000   15.999405
  5640     os         1      MOL     O5640      5640    0.00000000   15.999405
  5641     os         1      MOL     O5641      5641    0.00000000   15.999405
  5642     os         1      MOL     O5642      5642    0.00000000   15.999405
  5643     os         1      MOL     O5643      5643    0.00000000   15.999405
  5644     os         1      MOL     O5644      5644    0.00000000   15.999405
  5645     os         1      MOL     O5645      5645    0.00000000   15.999405
  5646     os         1      MOL     O5646      5646    0.00000000   15.999405
  5647     UF_Si      1      MOL     Si5647     5647    0.00000000   28.085499
  5648     UF_Si      1      MOL     Si5648     5648    0.00000000   28.085499
  5649     UF_Si      1      MOL     Si5649     5649    0.00000000   28.085499
  5650     UF_Si      1      MOL     Si5650     5650    0.00000000   28.085499
  5651     UF_Si      1      MOL     Si5651     5651    0.00000000   28.085499
  5652     UF_Si      1      MOL     Si5652     5652    0.00000000   28.085499
  5653     UF_Si      1      MOL     Si5653     5653    0.00000000   28.085499
  5654     UF_Si      1      MOL     Si5654     5654    0.00000000   28.085499
  5655     UF_Si      1      MOL     Si5655     5655    0.00000000   28.085499
  5656     UF_Si      1      MOL     Si5656     5656    0.00000000   28.085499
  5657     UF_Si      1      MOL     Si5657     5657    0.00000000   28.085499
  5658     UF_Si      1      MOL     Si5658     5658    0.00000000   28.085499
  5659     os         1      MOL     O5659      5659    0.00000000   15.999405
  5660     os         1      MOL     O5660      5660    0.00000000   15.999405
  5661     os         1      MOL     O5661      5661    0.00000000   15.999405
  5662     os         1      MOL     O5662      5662    0.00000000   15.999405
  5663     os         1      MOL     O5663      5663    0.00000000   15.999405
  5664     os         1      MOL     O5664      5664    0.00000000   15.999405
  5665     os         1      MOL     O5665      5665    0.00000000   15.999405
  5666     os         1      MOL     O5666      5666    0.00000000   15.999405
  5667     os         1      MOL     O5667      5667    0.00000000   15.999405
  5668     os         1      MOL     O5668      5668    0.00000000   15.999405
  5669     os         1      MOL     O5669      5669    0.00000000   15.999405
  5670     os         1      MOL     O5670      5670    0.00000000   15.999405
  5671     os         1      MOL     O5671      5671    0.00000000   15.999405
  5672     os         1      MOL     O5672      5672    0.00000000   15.999405
  5673     os         1      MOL     O5673      5673    0.00000000   15.999405
  5674     o          1      MOL     O5674      5674    0.00000000   15.999405
  5675     os         1      MOL     O5675      5675    0.00000000   15.999405
  5676     os         1      MOL     O5676      5676    0.00000000   15.999405
  5677     os         1      MOL     O5677      5677    0.00000000   15.999405
  5678     os         1      MOL     O5678      5678    0.00000000   15.999405
  5679     os         1      MOL     O5679      5679    0.00000000   15.999405
  5680     os         1      MOL     O5680      5680    0.00000000   15.999405
  5681     UF_Si      1      MOL     Si5681     5681    0.00000000   28.085499
  5682     UF_Si      1      MOL     Si5682     5682    0.00000000   28.085499
  5683     UF_Si      1      MOL     Si5683     5683    0.00000000   28.085499
  5684     UF_Si      1      MOL     Si5684     5684    0.00000000   28.085499
  5685     UF_Si      1      MOL     Si5685     5685    0.00000000   28.085499
  5686     UF_Si      1      MOL     Si5686     5686    0.00000000   28.085499
  5687     UF_Si      1      MOL     Si5687     5687    0.00000000   28.085499
  5688     UF_Si      1      MOL     Si5688     5688    0.00000000   28.085499
  5689     UF_Si      1      MOL     Si5689     5689    0.00000000   28.085499
  5690     UF_Si      1      MOL     Si5690     5690    0.00000000   28.085499
  5691     UF_Si      1      MOL     Si5691     5691    0.00000000   28.085499
  5692     UF_Si      1      MOL     Si5692     5692    0.00000000   28.085499
  5693     o          1      MOL     O5693      5693    0.00000000   15.999405
  5694     os         1      MOL     O5694      5694    0.00000000   15.999405
  5695     os         1      MOL     O5695      5695    0.00000000   15.999405
  5696     os         1      MOL     O5696      5696    0.00000000   15.999405
  5697     os         1      MOL     O5697      5697    0.00000000   15.999405
  5698     os         1      MOL     O5698      5698    0.00000000   15.999405
  5699     os         1      MOL     O5699      5699    0.00000000   15.999405
  5700     os         1      MOL     O5700      5700    0.00000000   15.999405
  5701     os         1      MOL     O5701      5701    0.00000000   15.999405
  5702     os         1      MOL     O5702      5702    0.00000000   15.999405
  5703     os         1      MOL     O5703      5703    0.00000000   15.999405
  5704     os         1      MOL     O5704      5704    0.00000000   15.999405
  5705     os         1      MOL     O5705      5705    0.00000000   15.999405
  5706     os         1      MOL     O5706      5706    0.00000000   15.999405
  5707     os         1      MOL     O5707      5707    0.00000000   15.999405
  5708     os         1      MOL     O5708      5708    0.00000000   15.999405
  5709     os         1      MOL     O5709      5709    0.00000000   15.999405
  5710     os         1      MOL     O5710      5710    0.00000000   15.999405
  5711     os         1      MOL     O5711      5711    0.00000000   15.999405
  5712     os         1      MOL     O5712      5712    0.00000000   15.999405
  5713     os         1      MOL     O5713      5713    0.00000000   15.999405
  5714     os         1      MOL     O5714      5714    0.00000000   15.999405
  5715     UF_Si      1      MOL     Si5715     5715    0.00000000   28.085499
  5716     UF_Si      1      MOL     Si5716     5716    0.00000000   28.085499
  5717     UF_Si      1      MOL     Si5717     5717    0.00000000   28.085499
  5718     UF_Si      1      MOL     Si5718     5718    0.00000000   28.085499
  5719     UF_Si      1      MOL     Si5719     5719    0.00000000   28.085499
  5720     UF_Si      1      MOL     Si5720     5720    0.00000000   28.085499
  5721     UF_Si      1      MOL     Si5721     5721    0.00000000   28.085499
  5722     UF_Si      1      MOL     Si5722     5722    0.00000000   28.085499
  5723     UF_Si      1      MOL     Si5723     5723    0.00000000   28.085499
  5724     UF_Si      1      MOL     Si5724     5724    0.00000000   28.085499
  5725     UF_Si      1      MOL     Si5725     5725    0.00000000   28.085499
  5726     UF_Si      1      MOL     Si5726     5726    0.00000000   28.085499
  5727     os         1      MOL     O5727      5727    0.00000000   15.999405
  5728     os         1      MOL     O5728      5728    0.00000000   15.999405
  5729     os         1      MOL     O5729      5729    0.00000000   15.999405
  5730     os         1      MOL     O5730      5730    0.00000000   15.999405
  5731     o          1      MOL     O5731      5731    0.00000000   15.999405
  5732     os         1      MOL     O5732      5732    0.00000000   15.999405
  5733     os         1      MOL     O5733      5733    0.00000000   15.999405
  5734     os         1      MOL     O5734      5734    0.00000000   15.999405
  5735     os         1      MOL     O5735      5735    0.00000000   15.999405
  5736     os         1      MOL     O5736      5736    0.00000000   15.999405
  5737     os         1      MOL     O5737      5737    0.00000000   15.999405
  5738     o          1      MOL     O5738      5738    0.00000000   15.999405
  5739     os         1      MOL     O5739      5739    0.00000000   15.999405
  5740     os         1      MOL     O5740      5740    0.00000000   15.999405
  5741     os         1      MOL     O5741      5741    0.00000000   15.999405
  5742     os         1      MOL     O5742      5742    0.00000000   15.999405
  5743     os         1      MOL     O5743      5743    0.00000000   15.999405
  5744     o          1      MOL     O5744      5744    0.00000000   15.999405
  5745     os         1      MOL     O5745      5745    0.00000000   15.999405
  5746     os         1      MOL     O5746      5746    0.00000000   15.999405
  5747     o          1      MOL     O5747      5747    0.00000000   15.999405
  5748     os         1      MOL     O5748      5748    0.00000000   15.999405
  5749     UF_Si      1      MOL     Si5749     5749    0.00000000   28.085499
  5750     UF_Si      1      MOL     Si5750     5750    0.00000000   28.085499
  5751     UF_Si      1      MOL     Si5751     5751    0.00000000   28.085499
  5752     UF_Si      1      MOL     Si5752     5752    0.00000000   28.085499
  5753     UF_Si      1      MOL     Si5753     5753    0.00000000   28.085499
  5754     UF_Si      1      MOL     Si5754     5754    0.00000000   28.085499
  5755     UF_Si      1      MOL     Si5755     5755    0.00000000   28.085499
  5756     UF_Si      1      MOL     Si5756     5756    0.00000000   28.085499
  5757     UF_Si      1      MOL     Si5757     5757    0.00000000   28.085499
  5758     UF_Si      1      MOL     Si5758     5758    0.00000000   28.085499
  5759     UF_Si      1      MOL     Si5759     5759    0.00000000   28.085499
  5760     UF_Si      1      MOL     Si5760     5760    0.00000000   28.085499
  5761     os         1      MOL     O5761      5761    0.00000000   15.999405
  5762     os         1      MOL     O5762      5762    0.00000000   15.999405
  5763     os         1      MOL     O5763      5763    0.00000000   15.999405
  5764     os         1      MOL     O5764      5764    0.00000000   15.999405
  5765     os         1      MOL     O5765      5765    0.00000000   15.999405
  5766     o          1      MOL     O5766      5766    0.00000000   15.999405
  5767     os         1      MOL     O5767      5767    0.00000000   15.999405
  5768     os         1      MOL     O5768      5768    0.00000000   15.999405
  5769     os         1      MOL     O5769      5769    0.00000000   15.999405
  5770     os         1      MOL     O5770      5770    0.00000000   15.999405
  5771     os         1      MOL     O5771      5771    0.00000000   15.999405
  5772     os         1      MOL     O5772      5772    0.00000000   15.999405
  5773     os         1      MOL     O5773      5773    0.00000000   15.999405
  5774     o          1      MOL     O5774      5774    0.00000000   15.999405
  5775     os         1      MOL     O5775      5775    0.00000000   15.999405
  5776     os         1      MOL     O5776      5776    0.00000000   15.999405
  5777     os         1      MOL     O5777      5777    0.00000000   15.999405
  5778     os         1      MOL     O5778      5778    0.00000000   15.999405
  5779     os         1      MOL     O5779      5779    0.00000000   15.999405
  5780     os         1      MOL     O5780      5780    0.00000000   15.999405
  5781     os         1      MOL     O5781      5781    0.00000000   15.999405
  5782     os         1      MOL     O5782      5782    0.00000000   15.999405
  5783     os         1      MOL     O5783      5783    0.00000000   15.999405
  5784     os         1      MOL     O5784      5784    0.00000000   15.999405
  5785     os         1      MOL     O5785      5785    0.00000000   15.999405
  5786     os         1      MOL     O5786      5786    0.00000000   15.999405
  5787     UF_Si      1      MOL     Si5787     5787    0.00000000   28.085499
  5788     UF_Si      1      MOL     Si5788     5788    0.00000000   28.085499
  5789     UF_Si      1      MOL     Si5789     5789    0.00000000   28.085499
  5790     UF_Si      1      MOL     Si5790     5790    0.00000000   28.085499
  5791     UF_Si      1      MOL     Si5791     5791    0.00000000   28.085499
  5792     UF_Si      1      MOL     Si5792     5792    0.00000000   28.085499
  5793     UF_Si      1      MOL     Si5793     5793    0.00000000   28.085499
  5794     UF_Si      1      MOL     Si5794     5794    0.00000000   28.085499
  5795     UF_Si      1      MOL     Si5795     5795    0.00000000   28.085499
  5796     UF_Si      1      MOL     Si5796     5796    0.00000000   28.085499
  5797     UF_Si      1      MOL     Si5797     5797    0.00000000   28.085499
  5798     UF_Si      1      MOL     Si5798     5798    0.00000000   28.085499
  5799     o          1      MOL     O5799      5799    0.00000000   15.999405
  5800     os         1      MOL     O5800      5800    0.00000000   15.999405
  5801     os         1      MOL     O5801      5801    0.00000000   15.999405
  5802     o          1      MOL     O5802      5802    0.00000000   15.999405
  5803     os         1      MOL     O5803      5803    0.00000000   15.999405
  5804     os         1      MOL     O5804      5804    0.00000000   15.999405
  5805     os         1      MOL     O5805      5805    0.00000000   15.999405
  5806     os         1      MOL     O5806      5806    0.00000000   15.999405
  5807     os         1      MOL     O5807      5807    0.00000000   15.999405
  5808     o          1      MOL     O5808      5808    0.00000000   15.999405
  5809     os         1      MOL     O5809      5809    0.00000000   15.999405
  5810     os         1      MOL     O5810      5810    0.00000000   15.999405
  5811     os         1      MOL     O5811      5811    0.00000000   15.999405
  5812     os         1      MOL     O5812      5812    0.00000000   15.999405
  5813     os         1      MOL     O5813      5813    0.00000000   15.999405
  5814     os         1      MOL     O5814      5814    0.00000000   15.999405
  5815     os         1      MOL     O5815      5815    0.00000000   15.999405
  5816     os         1      MOL     O5816      5816    0.00000000   15.999405
  5817     os         1      MOL     O5817      5817    0.00000000   15.999405
  5818     os         1      MOL     O5818      5818    0.00000000   15.999405
  5819     os         1      MOL     O5819      5819    0.00000000   15.999405
  5820     os         1      MOL     O5820      5820    0.00000000   15.999405
  5821     os         1      MOL     O5821      5821    0.00000000   15.999405
  5822     os         1      MOL     O5822      5822    0.00000000   15.999405
  5823     os         1      MOL     O5823      5823    0.00000000   15.999405
  5824     os         1      MOL     O5824      5824    0.00000000   15.999405
  5825     UF_Si      1      MOL     Si5825     5825    0.00000000   28.085499
  5826     UF_Si      1      MOL     Si5826     5826    0.00000000   28.085499
  5827     UF_Si      1      MOL     Si5827     5827    0.00000000   28.085499
  5828     UF_Si      1      MOL     Si5828     5828    0.00000000   28.085499
  5829     UF_Si      1      MOL     Si5829     5829    0.00000000   28.085499
  5830     UF_Si      1      MOL     Si5830     5830    0.00000000   28.085499
  5831     UF_Si      1      MOL     Si5831     5831    0.00000000   28.085499
  5832     UF_Si      1      MOL     Si5832     5832    0.00000000   28.085499
  5833     UF_Si      1      MOL     Si5833     5833    0.00000000   28.085499
  5834     UF_Si      1      MOL     Si5834     5834    0.00000000   28.085499
  5835     UF_Si      1      MOL     Si5835     5835    0.00000000   28.085499
  5836     UF_Si      1      MOL     Si5836     5836    0.00000000   28.085499
  5837     os         1      MOL     O5837      5837    0.00000000   15.999405
  5838     os         1      MOL     O5838      5838    0.00000000   15.999405
  5839     os         1      MOL     O5839      5839    0.00000000   15.999405
  5840     os         1      MOL     O5840      5840    0.00000000   15.999405
  5841     os         1      MOL     O5841      5841    0.00000000   15.999405
  5842     os         1      MOL     O5842      5842    0.00000000   15.999405
  5843     os         1      MOL     O5843      5843    0.00000000   15.999405
  5844     os         1      MOL     O5844      5844    0.00000000   15.999405
  5845     os         1      MOL     O5845      5845    0.00000000   15.999405
  5846     os         1      MOL     O5846      5846    0.00000000   15.999405
  5847     os         1      MOL     O5847      5847    0.00000000   15.999405
  5848     os         1      MOL     O5848      5848    0.00000000   15.999405
  5849     os         1      MOL     O5849      5849    0.00000000   15.999405
  5850     os         1      MOL     O5850      5850    0.00000000   15.999405
  5851     os         1      MOL     O5851      5851    0.00000000   15.999405
  5852     o          1      MOL     O5852      5852    0.00000000   15.999405
  5853     os         1      MOL     O5853      5853    0.00000000   15.999405
  5854     os         1      MOL     O5854      5854    0.00000000   15.999405
  5855     os         1      MOL     O5855      5855    0.00000000   15.999405
  5856     os         1      MOL     O5856      5856    0.00000000   15.999405
  5857     os         1      MOL     O5857      5857    0.00000000   15.999405
  5858     os         1      MOL     O5858      5858    0.00000000   15.999405
  5859     os         1      MOL     O5859      5859    0.00000000   15.999405
  5860     os         1      MOL     O5860      5860    0.00000000   15.999405
  5861     os         1      MOL     O5861      5861    0.00000000   15.999405
  5862     os         1      MOL     O5862      5862    0.00000000   15.999405
  5863     UF_Si      1      MOL     Si5863     5863    0.00000000   28.085499
  5864     UF_Si      1      MOL     Si5864     5864    0.00000000   28.085499
  5865     UF_Si      1      MOL     Si5865     5865    0.00000000   28.085499
  5866     UF_Si      1      MOL     Si5866     5866    0.00000000   28.085499
  5867     UF_Si      1      MOL     Si5867     5867    0.00000000   28.085499
  5868     UF_Si      1      MOL     Si5868     5868    0.00000000   28.085499
  5869     UF_Si      1      MOL     Si5869     5869    0.00000000   28.085499
  5870     UF_Si      1      MOL     Si5870     5870    0.00000000   28.085499
  5871     UF_Si      1      MOL     Si5871     5871    0.00000000   28.085499
  5872     UF_Si      1      MOL     Si5872     5872    0.00000000   28.085499
  5873     UF_Si      1      MOL     Si5873     5873    0.00000000   28.085499
  5874     UF_Si      1      MOL     Si5874     5874    0.00000000   28.085499
  5875     os         1      MOL     O5875      5875    0.00000000   15.999405
  5876     os         1      MOL     O5876      5876    0.00000000   15.999405
  5877     os         1      MOL     O5877      5877    0.00000000   15.999405
  5878     os         1      MOL     O5878      5878    0.00000000   15.999405
  5879     o          1      MOL     O5879      5879    0.00000000   15.999405
  5880     os         1      MOL     O5880      5880    0.00000000   15.999405
  5881     os         1      MOL     O5881      5881    0.00000000   15.999405
  5882     os         1      MOL     O5882      5882    0.00000000   15.999405
  5883     os         1      MOL     O5883      5883    0.00000000   15.999405
  5884     os         1      MOL     O5884      5884    0.00000000   15.999405
  5885     os         1      MOL     O5885      5885    0.00000000   15.999405
  5886     o          1      MOL     O5886      5886    0.00000000   15.999405
  5887     os         1      MOL     O5887      5887    0.00000000   15.999405
  5888     os         1      MOL     O5888      5888    0.00000000   15.999405
  5889     os         1      MOL     O5889      5889    0.00000000   15.999405
  5890     os         1      MOL     O5890      5890    0.00000000   15.999405
  5891     os         1      MOL     O5891      5891    0.00000000   15.999405
  5892     os         1      MOL     O5892      5892    0.00000000   15.999405
  5893     o          1      MOL     O5893      5893    0.00000000   15.999405
  5894     os         1      MOL     O5894      5894    0.00000000   15.999405
  5895     os         1      MOL     O5895      5895    0.00000000   15.999405
  5896     os         1      MOL     O5896      5896    0.00000000   15.999405
  5897     os         1      MOL     O5897      5897    0.00000000   15.999405
  5898     o          1      MOL     O5898      5898    0.00000000   15.999405
  5899     os         1      MOL     O5899      5899    0.00000000   15.999405
  5900     os         1      MOL     O5900      5900    0.00000000   15.999405
  5901     UF_Si      1      MOL     Si5901     5901    0.00000000   28.085499
  5902     UF_Si      1      MOL     Si5902     5902    0.00000000   28.085499
  5903     UF_Si      1      MOL     Si5903     5903    0.00000000   28.085499
  5904     UF_Si      1      MOL     Si5904     5904    0.00000000   28.085499
  5905     UF_Si      1      MOL     Si5905     5905    0.00000000   28.085499
  5906     UF_Si      1      MOL     Si5906     5906    0.00000000   28.085499
  5907     UF_Si      1      MOL     Si5907     5907    0.00000000   28.085499
  5908     UF_Si      1      MOL     Si5908     5908    0.00000000   28.085499
  5909     UF_Si      1      MOL     Si5909     5909    0.00000000   28.085499
  5910     UF_Si      1      MOL     Si5910     5910    0.00000000   28.085499
  5911     UF_Si      1      MOL     Si5911     5911    0.00000000   28.085499
  5912     UF_Si      1      MOL     Si5912     5912    0.00000000   28.085499
  5913     os         1      MOL     O5913      5913    0.00000000   15.999405
  5914     os         1      MOL     O5914      5914    0.00000000   15.999405
  5915     os         1      MOL     O5915      5915    0.00000000   15.999405
  5916     o          1      MOL     O5916      5916    0.00000000   15.999405
  5917     o          1      MOL     O5917      5917    0.00000000   15.999405
  5918     os         1      MOL     O5918      5918    0.00000000   15.999405
  5919     os         1      MOL     O5919      5919    0.00000000   15.999405
  5920     os         1      MOL     O5920      5920    0.00000000   15.999405
  5921     os         1      MOL     O5921      5921    0.00000000   15.999405
  5922     o          1      MOL     O5922      5922    0.00000000   15.999405
  5923     os         1      MOL     O5923      5923    0.00000000   15.999405
  5924     o          1      MOL     O5924      5924    0.00000000   15.999405
  5925     os         1      MOL     O5925      5925    0.00000000   15.999405
  5926     os         1      MOL     O5926      5926    0.00000000   15.999405
  5927     os         1      MOL     O5927      5927    0.00000000   15.999405
  5928     os         1      MOL     O5928      5928    0.00000000   15.999405
  5929     os         1      MOL     O5929      5929    0.00000000   15.999405
  5930     o          1      MOL     O5930      5930    0.00000000   15.999405
  5931     os         1      MOL     O5931      5931    0.00000000   15.999405
  5932     os         1      MOL     O5932      5932    0.00000000   15.999405
  5933     o          1      MOL     O5933      5933    0.00000000   15.999405
  5934     os         1      MOL     O5934      5934    0.00000000   15.999405
  5935     UF_Si      1      MOL     Si5935     5935    0.00000000   28.085499
  5936     UF_Si      1      MOL     Si5936     5936    0.00000000   28.085499
  5937     UF_Si      1      MOL     Si5937     5937    0.00000000   28.085499
  5938     UF_Si      1      MOL     Si5938     5938    0.00000000   28.085499
  5939     UF_Si      1      MOL     Si5939     5939    0.00000000   28.085499
  5940     UF_Si      1      MOL     Si5940     5940    0.00000000   28.085499
  5941     UF_Si      1      MOL     Si5941     5941    0.00000000   28.085499
  5942     UF_Si      1      MOL     Si5942     5942    0.00000000   28.085499
  5943     UF_Si      1      MOL     Si5943     5943    0.00000000   28.085499
  5944     UF_Si      1      MOL     Si5944     5944    0.00000000   28.085499
  5945     UF_Si      1      MOL     Si5945     5945    0.00000000   28.085499
  5946     UF_Si      1      MOL     Si5946     5946    0.00000000   28.085499
  5947     os         1      MOL     O5947      5947    0.00000000   15.999405
  5948     os         1      MOL     O5948      5948    0.00000000   15.999405
  5949     os         1      MOL     O5949      5949    0.00000000   15.999405
  5950     os         1      MOL     O5950      5950    0.00000000   15.999405
  5951     os         1      MOL     O5951      5951    0.00000000   15.999405
  5952     o          1      MOL     O5952      5952    0.00000000   15.999405
  5953     os         1      MOL     O5953      5953    0.00000000   15.999405
  5954     os         1      MOL     O5954      5954    0.00000000   15.999405
  5955     os         1      MOL     O5955      5955    0.00000000   15.999405
  5956     os         1      MOL     O5956      5956    0.00000000   15.999405
  5957     os         1      MOL     O5957      5957    0.00000000   15.999405
  5958     os         1      MOL     O5958      5958    0.00000000   15.999405
  5959     os         1      MOL     O5959      5959    0.00000000   15.999405
  5960     o          1      MOL     O5960      5960    0.00000000   15.999405
  5961     os         1      MOL     O5961      5961    0.00000000   15.999405
  5962     o          1      MOL     O5962      5962    0.00000000   15.999405
  5963     os         1      MOL     O5963      5963    0.00000000   15.999405
  5964     os         1      MOL     O5964      5964    0.00000000   15.999405
  5965     os         1      MOL     O5965      5965    0.00000000   15.999405
  5966     os         1      MOL     O5966      5966    0.00000000   15.999405
  5967     os         1      MOL     O5967      5967    0.00000000   15.999405
  5968     os         1      MOL     O5968      5968    0.00000000   15.999405
  5969     UF_Si      1      MOL     Si5969     5969    0.00000000   28.085499
  5970     UF_Si      1      MOL     Si5970     5970    0.00000000   28.085499
  5971     UF_Si      1      MOL     Si5971     5971    0.00000000   28.085499
  5972     UF_Si      1      MOL     Si5972     5972    0.00000000   28.085499
  5973     UF_Si      1      MOL     Si5973     5973    0.00000000   28.085499
  5974     UF_Si      1      MOL     Si5974     5974    0.00000000   28.085499
  5975     UF_Si      1      MOL     Si5975     5975    0.00000000   28.085499
  5976     UF_Si      1      MOL     Si5976     5976    0.00000000   28.085499
  5977     UF_Si      1      MOL     Si5977     5977    0.00000000   28.085499
  5978     UF_Si      1      MOL     Si5978     5978    0.00000000   28.085499
  5979     UF_Si      1      MOL     Si5979     5979    0.00000000   28.085499
  5980     UF_Si      1      MOL     Si5980     5980    0.00000000   28.085499
  5981     o          1      MOL     O5981      5981    0.00000000   15.999405
  5982     os         1      MOL     O5982      5982    0.00000000   15.999405
  5983     os         1      MOL     O5983      5983    0.00000000   15.999405
  5984     os         1      MOL     O5984      5984    0.00000000   15.999405
  5985     os         1      MOL     O5985      5985    0.00000000   15.999405
  5986     os         1      MOL     O5986      5986    0.00000000   15.999405
  5987     os         1      MOL     O5987      5987    0.00000000   15.999405
  5988     os         1      MOL     O5988      5988    0.00000000   15.999405
  5989     os         1      MOL     O5989      5989    0.00000000   15.999405
  5990     os         1      MOL     O5990      5990    0.00000000   15.999405
  5991     os         1      MOL     O5991      5991    0.00000000   15.999405
  5992     os         1      MOL     O5992      5992    0.00000000   15.999405
  5993     os         1      MOL     O5993      5993    0.00000000   15.999405
  5994     os         1      MOL     O5994      5994    0.00000000   15.999405
  5995     os         1      MOL     O5995      5995    0.00000000   15.999405
  5996     os         1      MOL     O5996      5996    0.00000000   15.999405
  5997     os         1      MOL     O5997      5997    0.00000000   15.999405
  5998     os         1      MOL     O5998      5998    0.00000000   15.999405
  5999     os         1      MOL     O5999      5999    0.00000000   15.999405
  6000     os         1      MOL     O6000      6000    0.00000000   15.999405
  6001     os         1      MOL     O6001      6001    0.00000000   15.999405
  6002     os         1      MOL     O6002      6002    0.00000000   15.999405
  6003     UF_Si      1      MOL     Si6003     6003    0.00000000   28.085499
  6004     UF_Si      1      MOL     Si6004     6004    0.00000000   28.085499
  6005     UF_Si      1      MOL     Si6005     6005    0.00000000   28.085499
  6006     UF_Si      1      MOL     Si6006     6006    0.00000000   28.085499
  6007     UF_Si      1      MOL     Si6007     6007    0.00000000   28.085499
  6008     UF_Si      1      MOL     Si6008     6008    0.00000000   28.085499
  6009     UF_Si      1      MOL     Si6009     6009    0.00000000   28.085499
  6010     UF_Si      1      MOL     Si6010     6010    0.00000000   28.085499
  6011     UF_Si      1      MOL     Si6011     6011    0.00000000   28.085499
  6012     UF_Si      1      MOL     Si6012     6012    0.00000000   28.085499
  6013     UF_Si      1      MOL     Si6013     6013    0.00000000   28.085499
  6014     UF_Si      1      MOL     Si6014     6014    0.00000000   28.085499
  6015     os         1      MOL     O6015      6015    0.00000000   15.999405
  6016     os         1      MOL     O6016      6016    0.00000000   15.999405
  6017     os         1      MOL     O6017      6017    0.00000000   15.999405
  6018     os         1      MOL     O6018      6018    0.00000000   15.999405
  6019     os         1      MOL     O6019      6019    0.00000000   15.999405
  6020     os         1      MOL     O6020      6020    0.00000000   15.999405
  6021     os         1      MOL     O6021      6021    0.00000000   15.999405
  6022     os         1      MOL     O6022      6022    0.00000000   15.999405
  6023     os         1      MOL     O6023      6023    0.00000000   15.999405
  6024     os         1      MOL     O6024      6024    0.00000000   15.999405
  6025     os         1      MOL     O6025      6025    0.00000000   15.999405
  6026     os         1      MOL     O6026      6026    0.00000000   15.999405
  6027     os         1      MOL     O6027      6027    0.00000000   15.999405
  6028     os         1      MOL     O6028      6028    0.00000000   15.999405
  6029     os         1      MOL     O6029      6029    0.00000000   15.999405
  6030     os         1      MOL     O6030      6030    0.00000000   15.999405
  6031     os         1      MOL     O6031      6031    0.00000000   15.999405
  6032     os         1      MOL     O6032      6032    0.00000000   15.999405
  6033     os         1      MOL     O6033      6033    0.00000000   15.999405
  6034     os         1      MOL     O6034      6034    0.00000000   15.999405
  6035     os         1      MOL     O6035      6035    0.00000000   15.999405
  6036     os         1      MOL     O6036      6036    0.00000000   15.999405
  6037     UF_Si      1      MOL     Si6037     6037    0.00000000   28.085499
  6038     UF_Si      1      MOL     Si6038     6038    0.00000000   28.085499
  6039     UF_Si      1      MOL     Si6039     6039    0.00000000   28.085499
  6040     UF_Si      1      MOL     Si6040     6040    0.00000000   28.085499
  6041     UF_Si      1      MOL     Si6041     6041    0.00000000   28.085499
  6042     UF_Si      1      MOL     Si6042     6042    0.00000000   28.085499
  6043     UF_Si      1      MOL     Si6043     6043    0.00000000   28.085499
  6044     UF_Si      1      MOL     Si6044     6044    0.00000000   28.085499
  6045     UF_Si      1      MOL     Si6045     6045    0.00000000   28.085499
  6046     UF_Si      1      MOL     Si6046     6046    0.00000000   28.085499
  6047     UF_Si      1      MOL     Si6047     6047    0.00000000   28.085499
  6048     UF_Si      1      MOL     Si6048     6048    0.00000000   28.085499
  6049     os         1      MOL     O6049      6049    0.00000000   15.999405
  6050     os         1      MOL     O6050      6050    0.00000000   15.999405
  6051     os         1      MOL     O6051      6051    0.00000000   15.999405
  6052     os         1      MOL     O6052      6052    0.00000000   15.999405
  6053     os         1      MOL     O6053      6053    0.00000000   15.999405
  6054     o          1      MOL     O6054      6054    0.00000000   15.999405
  6055     os         1      MOL     O6055      6055    0.00000000   15.999405
  6056     os         1      MOL     O6056      6056    0.00000000   15.999405
  6057     os         1      MOL     O6057      6057    0.00000000   15.999405
  6058     os         1      MOL     O6058      6058    0.00000000   15.999405
  6059     os         1      MOL     O6059      6059    0.00000000   15.999405
  6060     os         1      MOL     O6060      6060    0.00000000   15.999405
  6061     os         1      MOL     O6061      6061    0.00000000   15.999405
  6062     o          1      MOL     O6062      6062    0.00000000   15.999405
  6063     os         1      MOL     O6063      6063    0.00000000   15.999405
  6064     os         1      MOL     O6064      6064    0.00000000   15.999405
  6065     os         1      MOL     O6065      6065    0.00000000   15.999405
  6066     os         1      MOL     O6066      6066    0.00000000   15.999405
  6067     os         1      MOL     O6067      6067    0.00000000   15.999405
  6068     os         1      MOL     O6068      6068    0.00000000   15.999405
  6069     os         1      MOL     O6069      6069    0.00000000   15.999405
  6070     os         1      MOL     O6070      6070    0.00000000   15.999405
  6071     os         1      MOL     O6071      6071    0.00000000   15.999405
  6072     os         1      MOL     O6072      6072    0.00000000   15.999405
  6073     os         1      MOL     O6073      6073    0.00000000   15.999405
  6074     os         1      MOL     O6074      6074    0.00000000   15.999405
  6075     UF_Si      1      MOL     Si6075     6075    0.00000000   28.085499
  6076     UF_Si      1      MOL     Si6076     6076    0.00000000   28.085499
  6077     UF_Si      1      MOL     Si6077     6077    0.00000000   28.085499
  6078     UF_Si      1      MOL     Si6078     6078    0.00000000   28.085499
  6079     UF_Si      1      MOL     Si6079     6079    0.00000000   28.085499
  6080     UF_Si      1      MOL     Si6080     6080    0.00000000   28.085499
  6081     UF_Si      1      MOL     Si6081     6081    0.00000000   28.085499
  6082     UF_Si      1      MOL     Si6082     6082    0.00000000   28.085499
  6083     UF_Si      1      MOL     Si6083     6083    0.00000000   28.085499
  6084     UF_Si      1      MOL     Si6084     6084    0.00000000   28.085499
  6085     UF_Si      1      MOL     Si6085     6085    0.00000000   28.085499
  6086     UF_Si      1      MOL     Si6086     6086    0.00000000   28.085499
  6087     o          1      MOL     O6087      6087    0.00000000   15.999405
  6088     os         1      MOL     O6088      6088    0.00000000   15.999405
  6089     os         1      MOL     O6089      6089    0.00000000   15.999405
  6090     o          1      MOL     O6090      6090    0.00000000   15.999405
  6091     os         1      MOL     O6091      6091    0.00000000   15.999405
  6092     os         1      MOL     O6092      6092    0.00000000   15.999405
  6093     os         1      MOL     O6093      6093    0.00000000   15.999405
  6094     os         1      MOL     O6094      6094    0.00000000   15.999405
  6095     os         1      MOL     O6095      6095    0.00000000   15.999405
  6096     o          1      MOL     O6096      6096    0.00000000   15.999405
  6097     os         1      MOL     O6097      6097    0.00000000   15.999405
  6098     os         1      MOL     O6098      6098    0.00000000   15.999405
  6099     os         1      MOL     O6099      6099    0.00000000   15.999405
  6100     os         1      MOL     O6100      6100    0.00000000   15.999405
  6101     os         1      MOL     O6101      6101    0.00000000   15.999405
  6102     os         1      MOL     O6102      6102    0.00000000   15.999405
  6103     os         1      MOL     O6103      6103    0.00000000   15.999405
  6104     os         1      MOL     O6104      6104    0.00000000   15.999405
  6105     os         1      MOL     O6105      6105    0.00000000   15.999405
  6106     os         1      MOL     O6106      6106    0.00000000   15.999405
  6107     os         1      MOL     O6107      6107    0.00000000   15.999405
  6108     os         1      MOL     O6108      6108    0.00000000   15.999405
  6109     os         1      MOL     O6109      6109    0.00000000   15.999405
  6110     os         1      MOL     O6110      6110    0.00000000   15.999405
  6111     os         1      MOL     O6111      6111    0.00000000   15.999405
  6112     os         1      MOL     O6112      6112    0.00000000   15.999405
  6113     UF_Si      1      MOL     Si6113     6113    0.00000000   28.085499
  6114     UF_Si      1      MOL     Si6114     6114    0.00000000   28.085499
  6115     UF_Si      1      MOL     Si6115     6115    0.00000000   28.085499
  6116     UF_Si      1      MOL     Si6116     6116    0.00000000   28.085499
  6117     UF_Si      1      MOL     Si6117     6117    0.00000000   28.085499
  6118     UF_Si      1      MOL     Si6118     6118    0.00000000   28.085499
  6119     UF_Si      1      MOL     Si6119     6119    0.00000000   28.085499
  6120     UF_Si      1      MOL     Si6120     6120    0.00000000   28.085499
  6121     UF_Si      1      MOL     Si6121     6121    0.00000000   28.085499
  6122     UF_Si      1      MOL     Si6122     6122    0.00000000   28.085499
  6123     UF_Si      1      MOL     Si6123     6123    0.00000000   28.085499
  6124     UF_Si      1      MOL     Si6124     6124    0.00000000   28.085499
  6125     os         1      MOL     O6125      6125    0.00000000   15.999405
  6126     os         1      MOL     O6126      6126    0.00000000   15.999405
  6127     os         1      MOL     O6127      6127    0.00000000   15.999405
  6128     os         1      MOL     O6128      6128    0.00000000   15.999405
  6129     os         1      MOL     O6129      6129    0.00000000   15.999405
  6130     os         1      MOL     O6130      6130    0.00000000   15.999405
  6131     os         1      MOL     O6131      6131    0.00000000   15.999405
  6132     os         1      MOL     O6132      6132    0.00000000   15.999405
  6133     os         1      MOL     O6133      6133    0.00000000   15.999405
  6134     os         1      MOL     O6134      6134    0.00000000   15.999405
  6135     os         1      MOL     O6135      6135    0.00000000   15.999405
  6136     os         1      MOL     O6136      6136    0.00000000   15.999405
  6137     os         1      MOL     O6137      6137    0.00000000   15.999405
  6138     os         1      MOL     O6138      6138    0.00000000   15.999405
  6139     os         1      MOL     O6139      6139    0.00000000   15.999405
  6140     o          1      MOL     O6140      6140    0.00000000   15.999405
  6141     os         1      MOL     O6141      6141    0.00000000   15.999405
  6142     os         1      MOL     O6142      6142    0.00000000   15.999405
  6143     os         1      MOL     O6143      6143    0.00000000   15.999405
  6144     os         1      MOL     O6144      6144    0.00000000   15.999405
  6145     os         1      MOL     O6145      6145    0.00000000   15.999405
  6146     os         1      MOL     O6146      6146    0.00000000   15.999405
  6147     os         1      MOL     O6147      6147    0.00000000   15.999405
  6148     os         1      MOL     O6148      6148    0.00000000   15.999405
  6149     os         1      MOL     O6149      6149    0.00000000   15.999405
  6150     os         1      MOL     O6150      6150    0.00000000   15.999405
  6151     UF_Si      1      MOL     Si6151     6151    0.00000000   28.085499
  6152     UF_Si      1      MOL     Si6152     6152    0.00000000   28.085499
  6153     UF_Si      1      MOL     Si6153     6153    0.00000000   28.085499
  6154     UF_Si      1      MOL     Si6154     6154    0.00000000   28.085499
  6155     UF_Si      1      MOL     Si6155     6155    0.00000000   28.085499
  6156     UF_Si      1      MOL     Si6156     6156    0.00000000   28.085499
  6157     UF_Si      1      MOL     Si6157     6157    0.00000000   28.085499
  6158     UF_Si      1      MOL     Si6158     6158    0.00000000   28.085499
  6159     UF_Si      1      MOL     Si6159     6159    0.00000000   28.085499
  6160     UF_Si      1      MOL     Si6160     6160    0.00000000   28.085499
  6161     UF_Si      1      MOL     Si6161     6161    0.00000000   28.085499
  6162     UF_Si      1      MOL     Si6162     6162    0.00000000   28.085499
  6163     os         1      MOL     O6163      6163    0.00000000   15.999405
  6164     os         1      MOL     O6164      6164    0.00000000   15.999405
  6165     os         1      MOL     O6165      6165    0.00000000   15.999405
  6166     os         1      MOL     O6166      6166    0.00000000   15.999405
  6167     os         1      MOL     O6167      6167    0.00000000   15.999405
  6168     os         1      MOL     O6168      6168    0.00000000   15.999405
  6169     os         1      MOL     O6169      6169    0.00000000   15.999405
  6170     os         1      MOL     O6170      6170    0.00000000   15.999405
  6171     os         1      MOL     O6171      6171    0.00000000   15.999405
  6172     os         1      MOL     O6172      6172    0.00000000   15.999405
  6173     os         1      MOL     O6173      6173    0.00000000   15.999405
  6174     os         1      MOL     O6174      6174    0.00000000   15.999405
  6175     os         1      MOL     O6175      6175    0.00000000   15.999405
  6176     os         1      MOL     O6176      6176    0.00000000   15.999405
  6177     os         1      MOL     O6177      6177    0.00000000   15.999405
  6178     os         1      MOL     O6178      6178    0.00000000   15.999405
  6179     os         1      MOL     O6179      6179    0.00000000   15.999405
  6180     os         1      MOL     O6180      6180    0.00000000   15.999405
  6181     os         1      MOL     O6181      6181    0.00000000   15.999405
  6182     os         1      MOL     O6182      6182    0.00000000   15.999405
  6183     os         1      MOL     O6183      6183    0.00000000   15.999405
  6184     os         1      MOL     O6184      6184    0.00000000   15.999405
  6185     os         1      MOL     O6185      6185    0.00000000   15.999405
  6186     os         1      MOL     O6186      6186    0.00000000   15.999405
  6187     os         1      MOL     O6187      6187    0.00000000   15.999405
  6188     os         1      MOL     O6188      6188    0.00000000   15.999405
  6189     UF_Si      1      MOL     Si6189     6189    0.00000000   28.085499
  6190     UF_Si      1      MOL     Si6190     6190    0.00000000   28.085499
  6191     UF_Si      1      MOL     Si6191     6191    0.00000000   28.085499
  6192     UF_Si      1      MOL     Si6192     6192    0.00000000   28.085499
  6193     UF_Si      1      MOL     Si6193     6193    0.00000000   28.085499
  6194     UF_Si      1      MOL     Si6194     6194    0.00000000   28.085499
  6195     UF_Si      1      MOL     Si6195     6195    0.00000000   28.085499
  6196     UF_Si      1      MOL     Si6196     6196    0.00000000   28.085499
  6197     UF_Si      1      MOL     Si6197     6197    0.00000000   28.085499
  6198     UF_Si      1      MOL     Si6198     6198    0.00000000   28.085499
  6199     UF_Si      1      MOL     Si6199     6199    0.00000000   28.085499
  6200     UF_Si      1      MOL     Si6200     6200    0.00000000   28.085499
  6201     os         1      MOL     O6201      6201    0.00000000   15.999405
  6202     os         1      MOL     O6202      6202    0.00000000   15.999405
  6203     os         1      MOL     O6203      6203    0.00000000   15.999405
  6204     o          1      MOL     O6204      6204    0.00000000   15.999405
  6205     os         1      MOL     O6205      6205    0.00000000   15.999405
  6206     os         1      MOL     O6206      6206    0.00000000   15.999405
  6207     os         1      MOL     O6207      6207    0.00000000   15.999405
  6208     os         1      MOL     O6208      6208    0.00000000   15.999405
  6209     os         1      MOL     O6209      6209    0.00000000   15.999405
  6210     o          1      MOL     O6210      6210    0.00000000   15.999405
  6211     os         1      MOL     O6211      6211    0.00000000   15.999405
  6212     os         1      MOL     O6212      6212    0.00000000   15.999405
  6213     os         1      MOL     O6213      6213    0.00000000   15.999405
  6214     os         1      MOL     O6214      6214    0.00000000   15.999405
  6215     os         1      MOL     O6215      6215    0.00000000   15.999405
  6216     os         1      MOL     O6216      6216    0.00000000   15.999405
  6217     os         1      MOL     O6217      6217    0.00000000   15.999405
  6218     os         1      MOL     O6218      6218    0.00000000   15.999405
  6219     os         1      MOL     O6219      6219    0.00000000   15.999405
  6220     os         1      MOL     O6220      6220    0.00000000   15.999405
  6221     os         1      MOL     O6221      6221    0.00000000   15.999405
  6222     os         1      MOL     O6222      6222    0.00000000   15.999405
  6223     UF_Si      1      MOL     Si6223     6223    0.00000000   28.085499
  6224     UF_Si      1      MOL     Si6224     6224    0.00000000   28.085499
  6225     UF_Si      1      MOL     Si6225     6225    0.00000000   28.085499
  6226     UF_Si      1      MOL     Si6226     6226    0.00000000   28.085499
  6227     UF_Si      1      MOL     Si6227     6227    0.00000000   28.085499
  6228     UF_Si      1      MOL     Si6228     6228    0.00000000   28.085499
  6229     UF_Si      1      MOL     Si6229     6229    0.00000000   28.085499
  6230     UF_Si      1      MOL     Si6230     6230    0.00000000   28.085499
  6231     UF_Si      1      MOL     Si6231     6231    0.00000000   28.085499
  6232     UF_Si      1      MOL     Si6232     6232    0.00000000   28.085499
  6233     UF_Si      1      MOL     Si6233     6233    0.00000000   28.085499
  6234     UF_Si      1      MOL     Si6234     6234    0.00000000   28.085499
  6235     os         1      MOL     O6235      6235    0.00000000   15.999405
  6236     os         1      MOL     O6236      6236    0.00000000   15.999405
  6237     os         1      MOL     O6237      6237    0.00000000   15.999405
  6238     os         1      MOL     O6238      6238    0.00000000   15.999405
  6239     os         1      MOL     O6239      6239    0.00000000   15.999405
  6240     o          1      MOL     O6240      6240    0.00000000   15.999405
  6241     os         1      MOL     O6241      6241    0.00000000   15.999405
  6242     os         1      MOL     O6242      6242    0.00000000   15.999405
  6243     os         1      MOL     O6243      6243    0.00000000   15.999405
  6244     os         1      MOL     O6244      6244    0.00000000   15.999405
  6245     os         1      MOL     O6245      6245    0.00000000   15.999405
  6246     os         1      MOL     O6246      6246    0.00000000   15.999405
  6247     os         1      MOL     O6247      6247    0.00000000   15.999405
  6248     o          1      MOL     O6248      6248    0.00000000   15.999405
  6249     os         1      MOL     O6249      6249    0.00000000   15.999405
  6250     o          1      MOL     O6250      6250    0.00000000   15.999405
  6251     os         1      MOL     O6251      6251    0.00000000   15.999405
  6252     os         1      MOL     O6252      6252    0.00000000   15.999405
  6253     os         1      MOL     O6253      6253    0.00000000   15.999405
  6254     os         1      MOL     O6254      6254    0.00000000   15.999405
  6255     os         1      MOL     O6255      6255    0.00000000   15.999405
  6256     os         1      MOL     O6256      6256    0.00000000   15.999405
  6257     UF_Si      1      MOL     Si6257     6257    0.00000000   28.085499
  6258     UF_Si      1      MOL     Si6258     6258    0.00000000   28.085499
  6259     UF_Si      1      MOL     Si6259     6259    0.00000000   28.085499
  6260     UF_Si      1      MOL     Si6260     6260    0.00000000   28.085499
  6261     UF_Si      1      MOL     Si6261     6261    0.00000000   28.085499
  6262     UF_Si      1      MOL     Si6262     6262    0.00000000   28.085499
  6263     UF_Si      1      MOL     Si6263     6263    0.00000000   28.085499
  6264     UF_Si      1      MOL     Si6264     6264    0.00000000   28.085499
  6265     UF_Si      1      MOL     Si6265     6265    0.00000000   28.085499
  6266     UF_Si      1      MOL     Si6266     6266    0.00000000   28.085499
  6267     UF_Si      1      MOL     Si6267     6267    0.00000000   28.085499
  6268     UF_Si      1      MOL     Si6268     6268    0.00000000   28.085499
  6269     o          1      MOL     O6269      6269    0.00000000   15.999405
  6270     os         1      MOL     O6270      6270    0.00000000   15.999405
  6271     os         1      MOL     O6271      6271    0.00000000   15.999405
  6272     os         1      MOL     O6272      6272    0.00000000   15.999405
  6273     os         1      MOL     O6273      6273    0.00000000   15.999405
  6274     os         1      MOL     O6274      6274    0.00000000   15.999405
  6275     os         1      MOL     O6275      6275    0.00000000   15.999405
  6276     os         1      MOL     O6276      6276    0.00000000   15.999405
  6277     os         1      MOL     O6277      6277    0.00000000   15.999405
  6278     os         1      MOL     O6278      6278    0.00000000   15.999405
  6279     os         1      MOL     O6279      6279    0.00000000   15.999405
  6280     os         1      MOL     O6280      6280    0.00000000   15.999405
  6281     os         1      MOL     O6281      6281    0.00000000   15.999405
  6282     os         1      MOL     O6282      6282    0.00000000   15.999405
  6283     os         1      MOL     O6283      6283    0.00000000   15.999405
  6284     os         1      MOL     O6284      6284    0.00000000   15.999405
  6285     os         1      MOL     O6285      6285    0.00000000   15.999405
  6286     os         1      MOL     O6286      6286    0.00000000   15.999405
  6287     os         1      MOL     O6287      6287    0.00000000   15.999405
  6288     os         1      MOL     O6288      6288    0.00000000   15.999405
  6289     os         1      MOL     O6289      6289    0.00000000   15.999405
  6290     os         1      MOL     O6290      6290    0.00000000   15.999405
  6291     UF_Si      1      MOL     Si6291     6291    0.00000000   28.085499
  6292     UF_Si      1      MOL     Si6292     6292    0.00000000   28.085499
  6293     UF_Si      1      MOL     Si6293     6293    0.00000000   28.085499
  6294     UF_Si      1      MOL     Si6294     6294    0.00000000   28.085499
  6295     UF_Si      1      MOL     Si6295     6295    0.00000000   28.085499
  6296     UF_Si      1      MOL     Si6296     6296    0.00000000   28.085499
  6297     UF_Si      1      MOL     Si6297     6297    0.00000000   28.085499
  6298     UF_Si      1      MOL     Si6298     6298    0.00000000   28.085499
  6299     UF_Si      1      MOL     Si6299     6299    0.00000000   28.085499
  6300     UF_Si      1      MOL     Si6300     6300    0.00000000   28.085499
  6301     UF_Si      1      MOL     Si6301     6301    0.00000000   28.085499
  6302     UF_Si      1      MOL     Si6302     6302    0.00000000   28.085499
  6303     os         1      MOL     O6303      6303    0.00000000   15.999405
  6304     os         1      MOL     O6304      6304    0.00000000   15.999405
  6305     os         1      MOL     O6305      6305    0.00000000   15.999405
  6306     os         1      MOL     O6306      6306    0.00000000   15.999405
  6307     os         1      MOL     O6307      6307    0.00000000   15.999405
  6308     os         1      MOL     O6308      6308    0.00000000   15.999405
  6309     os         1      MOL     O6309      6309    0.00000000   15.999405
  6310     os         1      MOL     O6310      6310    0.00000000   15.999405
  6311     os         1      MOL     O6311      6311    0.00000000   15.999405
  6312     os         1      MOL     O6312      6312    0.00000000   15.999405
  6313     os         1      MOL     O6313      6313    0.00000000   15.999405
  6314     os         1      MOL     O6314      6314    0.00000000   15.999405
  6315     os         1      MOL     O6315      6315    0.00000000   15.999405
  6316     os         1      MOL     O6316      6316    0.00000000   15.999405
  6317     os         1      MOL     O6317      6317    0.00000000   15.999405
  6318     os         1      MOL     O6318      6318    0.00000000   15.999405
  6319     os         1      MOL     O6319      6319    0.00000000   15.999405
  6320     os         1      MOL     O6320      6320    0.00000000   15.999405
  6321     os         1      MOL     O6321      6321    0.00000000   15.999405
  6322     os         1      MOL     O6322      6322    0.00000000   15.999405
  6323     os         1      MOL     O6323      6323    0.00000000   15.999405
  6324     os         1      MOL     O6324      6324    0.00000000   15.999405
  6325     UF_Si      1      MOL     Si6325     6325    0.00000000   28.085499
  6326     UF_Si      1      MOL     Si6326     6326    0.00000000   28.085499
  6327     UF_Si      1      MOL     Si6327     6327    0.00000000   28.085499
  6328     UF_Si      1      MOL     Si6328     6328    0.00000000   28.085499
  6329     UF_Si      1      MOL     Si6329     6329    0.00000000   28.085499
  6330     UF_Si      1      MOL     Si6330     6330    0.00000000   28.085499
  6331     UF_Si      1      MOL     Si6331     6331    0.00000000   28.085499
  6332     UF_Si      1      MOL     Si6332     6332    0.00000000   28.085499
  6333     UF_Si      1      MOL     Si6333     6333    0.00000000   28.085499
  6334     UF_Si      1      MOL     Si6334     6334    0.00000000   28.085499
  6335     UF_Si      1      MOL     Si6335     6335    0.00000000   28.085499
  6336     UF_Si      1      MOL     Si6336     6336    0.00000000   28.085499
  6337     os         1      MOL     O6337      6337    0.00000000   15.999405
  6338     os         1      MOL     O6338      6338    0.00000000   15.999405
  6339     os         1      MOL     O6339      6339    0.00000000   15.999405
  6340     os         1      MOL     O6340      6340    0.00000000   15.999405
  6341     os         1      MOL     O6341      6341    0.00000000   15.999405
  6342     o          1      MOL     O6342      6342    0.00000000   15.999405
  6343     os         1      MOL     O6343      6343    0.00000000   15.999405
  6344     os         1      MOL     O6344      6344    0.00000000   15.999405
  6345     os         1      MOL     O6345      6345    0.00000000   15.999405
  6346     os         1      MOL     O6346      6346    0.00000000   15.999405
  6347     os         1      MOL     O6347      6347    0.00000000   15.999405
  6348     os         1      MOL     O6348      6348    0.00000000   15.999405
  6349     os         1      MOL     O6349      6349    0.00000000   15.999405
  6350     o          1      MOL     O6350      6350    0.00000000   15.999405
  6351     os         1      MOL     O6351      6351    0.00000000   15.999405
  6352     os         1      MOL     O6352      6352    0.00000000   15.999405
  6353     os         1      MOL     O6353      6353    0.00000000   15.999405
  6354     os         1      MOL     O6354      6354    0.00000000   15.999405
  6355     os         1      MOL     O6355      6355    0.00000000   15.999405
  6356     os         1      MOL     O6356      6356    0.00000000   15.999405
  6357     os         1      MOL     O6357      6357    0.00000000   15.999405
  6358     os         1      MOL     O6358      6358    0.00000000   15.999405
  6359     os         1      MOL     O6359      6359    0.00000000   15.999405
  6360     os         1      MOL     O6360      6360    0.00000000   15.999405
  6361     os         1      MOL     O6361      6361    0.00000000   15.999405
  6362     os         1      MOL     O6362      6362    0.00000000   15.999405
  6363     UF_Si      1      MOL     Si6363     6363    0.00000000   28.085499
  6364     UF_Si      1      MOL     Si6364     6364    0.00000000   28.085499
  6365     UF_Si      1      MOL     Si6365     6365    0.00000000   28.085499
  6366     UF_Si      1      MOL     Si6366     6366    0.00000000   28.085499
  6367     UF_Si      1      MOL     Si6367     6367    0.00000000   28.085499
  6368     UF_Si      1      MOL     Si6368     6368    0.00000000   28.085499
  6369     UF_Si      1      MOL     Si6369     6369    0.00000000   28.085499
  6370     UF_Si      1      MOL     Si6370     6370    0.00000000   28.085499
  6371     UF_Si      1      MOL     Si6371     6371    0.00000000   28.085499
  6372     UF_Si      1      MOL     Si6372     6372    0.00000000   28.085499
  6373     UF_Si      1      MOL     Si6373     6373    0.00000000   28.085499
  6374     UF_Si      1      MOL     Si6374     6374    0.00000000   28.085499
  6375     o          1      MOL     O6375      6375    0.00000000   15.999405
  6376     os         1      MOL     O6376      6376    0.00000000   15.999405
  6377     os         1      MOL     O6377      6377    0.00000000   15.999405
  6378     o          1      MOL     O6378      6378    0.00000000   15.999405
  6379     os         1      MOL     O6379      6379    0.00000000   15.999405
  6380     os         1      MOL     O6380      6380    0.00000000   15.999405
  6381     os         1      MOL     O6381      6381    0.00000000   15.999405
  6382     os         1      MOL     O6382      6382    0.00000000   15.999405
  6383     os         1      MOL     O6383      6383    0.00000000   15.999405
  6384     o          1      MOL     O6384      6384    0.00000000   15.999405
  6385     os         1      MOL     O6385      6385    0.00000000   15.999405
  6386     os         1      MOL     O6386      6386    0.00000000   15.999405
  6387     os         1      MOL     O6387      6387    0.00000000   15.999405
  6388     os         1      MOL     O6388      6388    0.00000000   15.999405
  6389     os         1      MOL     O6389      6389    0.00000000   15.999405
  6390     os         1      MOL     O6390      6390    0.00000000   15.999405
  6391     os         1      MOL     O6391      6391    0.00000000   15.999405
  6392     os         1      MOL     O6392      6392    0.00000000   15.999405
  6393     os         1      MOL     O6393      6393    0.00000000   15.999405
  6394     os         1      MOL     O6394      6394    0.00000000   15.999405
  6395     os         1      MOL     O6395      6395    0.00000000   15.999405
  6396     os         1      MOL     O6396      6396    0.00000000   15.999405
  6397     os         1      MOL     O6397      6397    0.00000000   15.999405
  6398     os         1      MOL     O6398      6398    0.00000000   15.999405
  6399     os         1      MOL     O6399      6399    0.00000000   15.999405
  6400     os         1      MOL     O6400      6400    0.00000000   15.999405
  6401     UF_Si      1      MOL     Si6401     6401    0.00000000   28.085499
  6402     UF_Si      1      MOL     Si6402     6402    0.00000000   28.085499
  6403     UF_Si      1      MOL     Si6403     6403    0.00000000   28.085499
  6404     UF_Si      1      MOL     Si6404     6404    0.00000000   28.085499
  6405     UF_Si      1      MOL     Si6405     6405    0.00000000   28.085499
  6406     UF_Si      1      MOL     Si6406     6406    0.00000000   28.085499
  6407     UF_Si      1      MOL     Si6407     6407    0.00000000   28.085499
  6408     UF_Si      1      MOL     Si6408     6408    0.00000000   28.085499
  6409     UF_Si      1      MOL     Si6409     6409    0.00000000   28.085499
  6410     UF_Si      1      MOL     Si6410     6410    0.00000000   28.085499
  6411     UF_Si      1      MOL     Si6411     6411    0.00000000   28.085499
  6412     UF_Si      1      MOL     Si6412     6412    0.00000000   28.085499
  6413     os         1      MOL     O6413      6413    0.00000000   15.999405
  6414     os         1      MOL     O6414      6414    0.00000000   15.999405
  6415     os         1      MOL     O6415      6415    0.00000000   15.999405
  6416     os         1      MOL     O6416      6416    0.00000000   15.999405
  6417     os         1      MOL     O6417      6417    0.00000000   15.999405
  6418     os         1      MOL     O6418      6418    0.00000000   15.999405
  6419     os         1      MOL     O6419      6419    0.00000000   15.999405
  6420     os         1      MOL     O6420      6420    0.00000000   15.999405
  6421     os         1      MOL     O6421      6421    0.00000000   15.999405
  6422     os         1      MOL     O6422      6422    0.00000000   15.999405
  6423     os         1      MOL     O6423      6423    0.00000000   15.999405
  6424     os         1      MOL     O6424      6424    0.00000000   15.999405
  6425     os         1      MOL     O6425      6425    0.00000000   15.999405
  6426     os         1      MOL     O6426      6426    0.00000000   15.999405
  6427     os         1      MOL     O6427      6427    0.00000000   15.999405
  6428     o          1      MOL     O6428      6428    0.00000000   15.999405
  6429     os         1      MOL     O6429      6429    0.00000000   15.999405
  6430     os         1      MOL     O6430      6430    0.00000000   15.999405
  6431     os         1      MOL     O6431      6431    0.00000000   15.999405
  6432     os         1      MOL     O6432      6432    0.00000000   15.999405
  6433     os         1      MOL     O6433      6433    0.00000000   15.999405
  6434     os         1      MOL     O6434      6434    0.00000000   15.999405
  6435     os         1      MOL     O6435      6435    0.00000000   15.999405
  6436     os         1      MOL     O6436      6436    0.00000000   15.999405
  6437     os         1      MOL     O6437      6437    0.00000000   15.999405
  6438     os         1      MOL     O6438      6438    0.00000000   15.999405
  6439     UF_Si      1      MOL     Si6439     6439    0.00000000   28.085499
  6440     UF_Si      1      MOL     Si6440     6440    0.00000000   28.085499
  6441     UF_Si      1      MOL     Si6441     6441    0.00000000   28.085499
  6442     UF_Si      1      MOL     Si6442     6442    0.00000000   28.085499
  6443     UF_Si      1      MOL     Si6443     6443    0.00000000   28.085499
  6444     UF_Si      1      MOL     Si6444     6444    0.00000000   28.085499
  6445     UF_Si      1      MOL     Si6445     6445    0.00000000   28.085499
  6446     UF_Si      1      MOL     Si6446     6446    0.00000000   28.085499
  6447     UF_Si      1      MOL     Si6447     6447    0.00000000   28.085499
  6448     UF_Si      1      MOL     Si6448     6448    0.00000000   28.085499
  6449     UF_Si      1      MOL     Si6449     6449    0.00000000   28.085499
  6450     UF_Si      1      MOL     Si6450     6450    0.00000000   28.085499
  6451     os         1      MOL     O6451      6451    0.00000000   15.999405
  6452     os         1      MOL     O6452      6452    0.00000000   15.999405
  6453     os         1      MOL     O6453      6453    0.00000000   15.999405
  6454     os         1      MOL     O6454      6454    0.00000000   15.999405
  6455     os         1      MOL     O6455      6455    0.00000000   15.999405
  6456     os         1      MOL     O6456      6456    0.00000000   15.999405
  6457     os         1      MOL     O6457      6457    0.00000000   15.999405
  6458     os         1      MOL     O6458      6458    0.00000000   15.999405
  6459     os         1      MOL     O6459      6459    0.00000000   15.999405
  6460     os         1      MOL     O6460      6460    0.00000000   15.999405
  6461     os         1      MOL     O6461      6461    0.00000000   15.999405
  6462     os         1      MOL     O6462      6462    0.00000000   15.999405
  6463     os         1      MOL     O6463      6463    0.00000000   15.999405
  6464     os         1      MOL     O6464      6464    0.00000000   15.999405
  6465     os         1      MOL     O6465      6465    0.00000000   15.999405
  6466     os         1      MOL     O6466      6466    0.00000000   15.999405
  6467     os         1      MOL     O6467      6467    0.00000000   15.999405
  6468     os         1      MOL     O6468      6468    0.00000000   15.999405
  6469     os         1      MOL     O6469      6469    0.00000000   15.999405
  6470     os         1      MOL     O6470      6470    0.00000000   15.999405
  6471     os         1      MOL     O6471      6471    0.00000000   15.999405
  6472     os         1      MOL     O6472      6472    0.00000000   15.999405
  6473     os         1      MOL     O6473      6473    0.00000000   15.999405
  6474     os         1      MOL     O6474      6474    0.00000000   15.999405
  6475     os         1      MOL     O6475      6475    0.00000000   15.999405
  6476     os         1      MOL     O6476      6476    0.00000000   15.999405
  6477     UF_Si      1      MOL     Si6477     6477    0.00000000   28.085499
  6478     UF_Si      1      MOL     Si6478     6478    0.00000000   28.085499
  6479     UF_Si      1      MOL     Si6479     6479    0.00000000   28.085499
  6480     UF_Si      1      MOL     Si6480     6480    0.00000000   28.085499
  6481     UF_Si      1      MOL     Si6481     6481    0.00000000   28.085499
  6482     UF_Si      1      MOL     Si6482     6482    0.00000000   28.085499
  6483     UF_Si      1      MOL     Si6483     6483    0.00000000   28.085499
  6484     UF_Si      1      MOL     Si6484     6484    0.00000000   28.085499
  6485     UF_Si      1      MOL     Si6485     6485    0.00000000   28.085499
  6486     UF_Si      1      MOL     Si6486     6486    0.00000000   28.085499
  6487     UF_Si      1      MOL     Si6487     6487    0.00000000   28.085499
  6488     UF_Si      1      MOL     Si6488     6488    0.00000000   28.085499
  6489     os         1      MOL     O6489      6489    0.00000000   15.999405
  6490     os         1      MOL     O6490      6490    0.00000000   15.999405
  6491     os         1      MOL     O6491      6491    0.00000000   15.999405
  6492     o          1      MOL     O6492      6492    0.00000000   15.999405
  6493     os         1      MOL     O6493      6493    0.00000000   15.999405
  6494     os         1      MOL     O6494      6494    0.00000000   15.999405
  6495     os         1      MOL     O6495      6495    0.00000000   15.999405
  6496     os         1      MOL     O6496      6496    0.00000000   15.999405
  6497     os         1      MOL     O6497      6497    0.00000000   15.999405
  6498     o          1      MOL     O6498      6498    0.00000000   15.999405
  6499     os         1      MOL     O6499      6499    0.00000000   15.999405
  6500     os         1      MOL     O6500      6500    0.00000000   15.999405
  6501     os         1      MOL     O6501      6501    0.00000000   15.999405
  6502     os         1      MOL     O6502      6502    0.00000000   15.999405
  6503     os         1      MOL     O6503      6503    0.00000000   15.999405
  6504     os         1      MOL     O6504      6504    0.00000000   15.999405
  6505     os         1      MOL     O6505      6505    0.00000000   15.999405
  6506     os         1      MOL     O6506      6506    0.00000000   15.999405
  6507     os         1      MOL     O6507      6507    0.00000000   15.999405
  6508     os         1      MOL     O6508      6508    0.00000000   15.999405
  6509     os         1      MOL     O6509      6509    0.00000000   15.999405
  6510     os         1      MOL     O6510      6510    0.00000000   15.999405
  6511     UF_Si      1      MOL     Si6511     6511    0.00000000   28.085499
  6512     UF_Si      1      MOL     Si6512     6512    0.00000000   28.085499
  6513     UF_Si      1      MOL     Si6513     6513    0.00000000   28.085499
  6514     UF_Si      1      MOL     Si6514     6514    0.00000000   28.085499
  6515     UF_Si      1      MOL     Si6515     6515    0.00000000   28.085499
  6516     UF_Si      1      MOL     Si6516     6516    0.00000000   28.085499
  6517     UF_Si      1      MOL     Si6517     6517    0.00000000   28.085499
  6518     UF_Si      1      MOL     Si6518     6518    0.00000000   28.085499
  6519     UF_Si      1      MOL     Si6519     6519    0.00000000   28.085499
  6520     UF_Si      1      MOL     Si6520     6520    0.00000000   28.085499
  6521     UF_Si      1      MOL     Si6521     6521    0.00000000   28.085499
  6522     UF_Si      1      MOL     Si6522     6522    0.00000000   28.085499
  6523     os         1      MOL     O6523      6523    0.00000000   15.999405
  6524     os         1      MOL     O6524      6524    0.00000000   15.999405
  6525     os         1      MOL     O6525      6525    0.00000000   15.999405
  6526     os         1      MOL     O6526      6526    0.00000000   15.999405
  6527     os         1      MOL     O6527      6527    0.00000000   15.999405
  6528     o          1      MOL     O6528      6528    0.00000000   15.999405
  6529     os         1      MOL     O6529      6529    0.00000000   15.999405
  6530     os         1      MOL     O6530      6530    0.00000000   15.999405
  6531     os         1      MOL     O6531      6531    0.00000000   15.999405
  6532     os         1      MOL     O6532      6532    0.00000000   15.999405
  6533     os         1      MOL     O6533      6533    0.00000000   15.999405
  6534     os         1      MOL     O6534      6534    0.00000000   15.999405
  6535     os         1      MOL     O6535      6535    0.00000000   15.999405
  6536     o          1      MOL     O6536      6536    0.00000000   15.999405
  6537     os         1      MOL     O6537      6537    0.00000000   15.999405
  6538     o          1      MOL     O6538      6538    0.00000000   15.999405
  6539     os         1      MOL     O6539      6539    0.00000000   15.999405
  6540     os         1      MOL     O6540      6540    0.00000000   15.999405
  6541     os         1      MOL     O6541      6541    0.00000000   15.999405
  6542     os         1      MOL     O6542      6542    0.00000000   15.999405
  6543     os         1      MOL     O6543      6543    0.00000000   15.999405
  6544     os         1      MOL     O6544      6544    0.00000000   15.999405
  6545     UF_Si      1      MOL     Si6545     6545    0.00000000   28.085499
  6546     UF_Si      1      MOL     Si6546     6546    0.00000000   28.085499
  6547     UF_Si      1      MOL     Si6547     6547    0.00000000   28.085499
  6548     UF_Si      1      MOL     Si6548     6548    0.00000000   28.085499
  6549     UF_Si      1      MOL     Si6549     6549    0.00000000   28.085499
  6550     UF_Si      1      MOL     Si6550     6550    0.00000000   28.085499
  6551     UF_Si      1      MOL     Si6551     6551    0.00000000   28.085499
  6552     UF_Si      1      MOL     Si6552     6552    0.00000000   28.085499
  6553     UF_Si      1      MOL     Si6553     6553    0.00000000   28.085499
  6554     UF_Si      1      MOL     Si6554     6554    0.00000000   28.085499
  6555     UF_Si      1      MOL     Si6555     6555    0.00000000   28.085499
  6556     UF_Si      1      MOL     Si6556     6556    0.00000000   28.085499
  6557     o          1      MOL     O6557      6557    0.00000000   15.999405
  6558     os         1      MOL     O6558      6558    0.00000000   15.999405
  6559     os         1      MOL     O6559      6559    0.00000000   15.999405
  6560     os         1      MOL     O6560      6560    0.00000000   15.999405
  6561     os         1      MOL     O6561      6561    0.00000000   15.999405
  6562     os         1      MOL     O6562      6562    0.00000000   15.999405
  6563     os         1      MOL     O6563      6563    0.00000000   15.999405
  6564     os         1      MOL     O6564      6564    0.00000000   15.999405
  6565     os         1      MOL     O6565      6565    0.00000000   15.999405
  6566     os         1      MOL     O6566      6566    0.00000000   15.999405
  6567     os         1      MOL     O6567      6567    0.00000000   15.999405
  6568     os         1      MOL     O6568      6568    0.00000000   15.999405
  6569     os         1      MOL     O6569      6569    0.00000000   15.999405
  6570     os         1      MOL     O6570      6570    0.00000000   15.999405
  6571     os         1      MOL     O6571      6571    0.00000000   15.999405
  6572     os         1      MOL     O6572      6572    0.00000000   15.999405
  6573     os         1      MOL     O6573      6573    0.00000000   15.999405
  6574     os         1      MOL     O6574      6574    0.00000000   15.999405
  6575     os         1      MOL     O6575      6575    0.00000000   15.999405
  6576     os         1      MOL     O6576      6576    0.00000000   15.999405
  6577     os         1      MOL     O6577      6577    0.00000000   15.999405
  6578     os         1      MOL     O6578      6578    0.00000000   15.999405
  6579     UF_Si      1      MOL     Si6579     6579    0.00000000   28.085499
  6580     UF_Si      1      MOL     Si6580     6580    0.00000000   28.085499
  6581     UF_Si      1      MOL     Si6581     6581    0.00000000   28.085499
  6582     UF_Si      1      MOL     Si6582     6582    0.00000000   28.085499
  6583     UF_Si      1      MOL     Si6583     6583    0.00000000   28.085499
  6584     UF_Si      1      MOL     Si6584     6584    0.00000000   28.085499
  6585     UF_Si      1      MOL     Si6585     6585    0.00000000   28.085499
  6586     UF_Si      1      MOL     Si6586     6586    0.00000000   28.085499
  6587     UF_Si      1      MOL     Si6587     6587    0.00000000   28.085499
  6588     UF_Si      1      MOL     Si6588     6588    0.00000000   28.085499
  6589     UF_Si      1      MOL     Si6589     6589    0.00000000   28.085499
  6590     UF_Si      1      MOL     Si6590     6590    0.00000000   28.085499
  6591     os         1      MOL     O6591      6591    0.00000000   15.999405
  6592     os         1      MOL     O6592      6592    0.00000000   15.999405
  6593     os         1      MOL     O6593      6593    0.00000000   15.999405
  6594     os         1      MOL     O6594      6594    0.00000000   15.999405
  6595     os         1      MOL     O6595      6595    0.00000000   15.999405
  6596     os         1      MOL     O6596      6596    0.00000000   15.999405
  6597     os         1      MOL     O6597      6597    0.00000000   15.999405
  6598     os         1      MOL     O6598      6598    0.00000000   15.999405
  6599     os         1      MOL     O6599      6599    0.00000000   15.999405
  6600     os         1      MOL     O6600      6600    0.00000000   15.999405
  6601     os         1      MOL     O6601      6601    0.00000000   15.999405
  6602     os         1      MOL     O6602      6602    0.00000000   15.999405
  6603     os         1      MOL     O6603      6603    0.00000000   15.999405
  6604     os         1      MOL     O6604      6604    0.00000000   15.999405
  6605     os         1      MOL     O6605      6605    0.00000000   15.999405
  6606     os         1      MOL     O6606      6606    0.00000000   15.999405
  6607     os         1      MOL     O6607      6607    0.00000000   15.999405
  6608     os         1      MOL     O6608      6608    0.00000000   15.999405
  6609     os         1      MOL     O6609      6609    0.00000000   15.999405
  6610     os         1      MOL     O6610      6610    0.00000000   15.999405
  6611     os         1      MOL     O6611      6611    0.00000000   15.999405
  6612     os         1      MOL     O6612      6612    0.00000000   15.999405
  6613     UF_Si      1      MOL     Si6613     6613    0.00000000   28.085499
  6614     UF_Si      1      MOL     Si6614     6614    0.00000000   28.085499
  6615     UF_Si      1      MOL     Si6615     6615    0.00000000   28.085499
  6616     UF_Si      1      MOL     Si6616     6616    0.00000000   28.085499
  6617     UF_Si      1      MOL     Si6617     6617    0.00000000   28.085499
  6618     UF_Si      1      MOL     Si6618     6618    0.00000000   28.085499
  6619     UF_Si      1      MOL     Si6619     6619    0.00000000   28.085499
  6620     UF_Si      1      MOL     Si6620     6620    0.00000000   28.085499
  6621     UF_Si      1      MOL     Si6621     6621    0.00000000   28.085499
  6622     UF_Si      1      MOL     Si6622     6622    0.00000000   28.085499
  6623     UF_Si      1      MOL     Si6623     6623    0.00000000   28.085499
  6624     UF_Si      1      MOL     Si6624     6624    0.00000000   28.085499
  6625     os         1      MOL     O6625      6625    0.00000000   15.999405
  6626     os         1      MOL     O6626      6626    0.00000000   15.999405
  6627     os         1      MOL     O6627      6627    0.00000000   15.999405
  6628     os         1      MOL     O6628      6628    0.00000000   15.999405
  6629     o          1      MOL     O6629      6629    0.00000000   15.999405
  6630     o          1      MOL     O6630      6630    0.00000000   15.999405
  6631     os         1      MOL     O6631      6631    0.00000000   15.999405
  6632     os         1      MOL     O6632      6632    0.00000000   15.999405
  6633     os         1      MOL     O6633      6633    0.00000000   15.999405
  6634     os         1      MOL     O6634      6634    0.00000000   15.999405
  6635     os         1      MOL     O6635      6635    0.00000000   15.999405
  6636     o          1      MOL     O6636      6636    0.00000000   15.999405
  6637     os         1      MOL     O6637      6637    0.00000000   15.999405
  6638     o          1      MOL     O6638      6638    0.00000000   15.999405
  6639     os         1      MOL     O6639      6639    0.00000000   15.999405
  6640     os         1      MOL     O6640      6640    0.00000000   15.999405
  6641     os         1      MOL     O6641      6641    0.00000000   15.999405
  6642     os         1      MOL     O6642      6642    0.00000000   15.999405
  6643     o          1      MOL     O6643      6643    0.00000000   15.999405
  6644     os         1      MOL     O6644      6644    0.00000000   15.999405
  6645     os         1      MOL     O6645      6645    0.00000000   15.999405
  6646     os         1      MOL     O6646      6646    0.00000000   15.999405
  6647     os         1      MOL     O6647      6647    0.00000000   15.999405
  6648     o          1      MOL     O6648      6648    0.00000000   15.999405
  6649     os         1      MOL     O6649      6649    0.00000000   15.999405
  6650     os         1      MOL     O6650      6650    0.00000000   15.999405
  6651     UF_Si      1      MOL     Si6651     6651    0.00000000   28.085499
  6652     UF_Si      1      MOL     Si6652     6652    0.00000000   28.085499
  6653     UF_Si      1      MOL     Si6653     6653    0.00000000   28.085499
  6654     UF_Si      1      MOL     Si6654     6654    0.00000000   28.085499
  6655     UF_Si      1      MOL     Si6655     6655    0.00000000   28.085499
  6656     UF_Si      1      MOL     Si6656     6656    0.00000000   28.085499
  6657     UF_Si      1      MOL     Si6657     6657    0.00000000   28.085499
  6658     UF_Si      1      MOL     Si6658     6658    0.00000000   28.085499
  6659     UF_Si      1      MOL     Si6659     6659    0.00000000   28.085499
  6660     UF_Si      1      MOL     Si6660     6660    0.00000000   28.085499
  6661     UF_Si      1      MOL     Si6661     6661    0.00000000   28.085499
  6662     UF_Si      1      MOL     Si6662     6662    0.00000000   28.085499
  6663     o          1      MOL     O6663      6663    0.00000000   15.999405
  6664     os         1      MOL     O6664      6664    0.00000000   15.999405
  6665     os         1      MOL     O6665      6665    0.00000000   15.999405
  6666     o          1      MOL     O6666      6666    0.00000000   15.999405
  6667     os         1      MOL     O6667      6667    0.00000000   15.999405
  6668     os         1      MOL     O6668      6668    0.00000000   15.999405
  6669     os         1      MOL     O6669      6669    0.00000000   15.999405
  6670     os         1      MOL     O6670      6670    0.00000000   15.999405
  6671     os         1      MOL     O6671      6671    0.00000000   15.999405
  6672     o          1      MOL     O6672      6672    0.00000000   15.999405
  6673     os         1      MOL     O6673      6673    0.00000000   15.999405
  6674     os         1      MOL     O6674      6674    0.00000000   15.999405
  6675     os         1      MOL     O6675      6675    0.00000000   15.999405
  6676     os         1      MOL     O6676      6676    0.00000000   15.999405
  6677     os         1      MOL     O6677      6677    0.00000000   15.999405
  6678     os         1      MOL     O6678      6678    0.00000000   15.999405
  6679     os         1      MOL     O6679      6679    0.00000000   15.999405
  6680     os         1      MOL     O6680      6680    0.00000000   15.999405
  6681     os         1      MOL     O6681      6681    0.00000000   15.999405
  6682     os         1      MOL     O6682      6682    0.00000000   15.999405
  6683     os         1      MOL     O6683      6683    0.00000000   15.999405
  6684     os         1      MOL     O6684      6684    0.00000000   15.999405
  6685     os         1      MOL     O6685      6685    0.00000000   15.999405
  6686     os         1      MOL     O6686      6686    0.00000000   15.999405
  6687     os         1      MOL     O6687      6687    0.00000000   15.999405
  6688     os         1      MOL     O6688      6688    0.00000000   15.999405
  6689     UF_Si      1      MOL     Si6689     6689    0.00000000   28.085499
  6690     UF_Si      1      MOL     Si6690     6690    0.00000000   28.085499
  6691     UF_Si      1      MOL     Si6691     6691    0.00000000   28.085499
  6692     UF_Si      1      MOL     Si6692     6692    0.00000000   28.085499
  6693     UF_Si      1      MOL     Si6693     6693    0.00000000   28.085499
  6694     UF_Si      1      MOL     Si6694     6694    0.00000000   28.085499
  6695     UF_Si      1      MOL     Si6695     6695    0.00000000   28.085499
  6696     UF_Si      1      MOL     Si6696     6696    0.00000000   28.085499
  6697     UF_Si      1      MOL     Si6697     6697    0.00000000   28.085499
  6698     UF_Si      1      MOL     Si6698     6698    0.00000000   28.085499
  6699     UF_Si      1      MOL     Si6699     6699    0.00000000   28.085499
  6700     UF_Si      1      MOL     Si6700     6700    0.00000000   28.085499
  6701     os         1      MOL     O6701      6701    0.00000000   15.999405
  6702     os         1      MOL     O6702      6702    0.00000000   15.999405
  6703     os         1      MOL     O6703      6703    0.00000000   15.999405
  6704     os         1      MOL     O6704      6704    0.00000000   15.999405
  6705     os         1      MOL     O6705      6705    0.00000000   15.999405
  6706     os         1      MOL     O6706      6706    0.00000000   15.999405
  6707     os         1      MOL     O6707      6707    0.00000000   15.999405
  6708     os         1      MOL     O6708      6708    0.00000000   15.999405
  6709     os         1      MOL     O6709      6709    0.00000000   15.999405
  6710     os         1      MOL     O6710      6710    0.00000000   15.999405
  6711     os         1      MOL     O6711      6711    0.00000000   15.999405
  6712     os         1      MOL     O6712      6712    0.00000000   15.999405
  6713     os         1      MOL     O6713      6713    0.00000000   15.999405
  6714     os         1      MOL     O6714      6714    0.00000000   15.999405
  6715     os         1      MOL     O6715      6715    0.00000000   15.999405
  6716     o          1      MOL     O6716      6716    0.00000000   15.999405
  6717     os         1      MOL     O6717      6717    0.00000000   15.999405
  6718     os         1      MOL     O6718      6718    0.00000000   15.999405
  6719     os         1      MOL     O6719      6719    0.00000000   15.999405
  6720     os         1      MOL     O6720      6720    0.00000000   15.999405
  6721     os         1      MOL     O6721      6721    0.00000000   15.999405
  6722     os         1      MOL     O6722      6722    0.00000000   15.999405
  6723     os         1      MOL     O6723      6723    0.00000000   15.999405
  6724     os         1      MOL     O6724      6724    0.00000000   15.999405
  6725     os         1      MOL     O6725      6725    0.00000000   15.999405
  6726     os         1      MOL     O6726      6726    0.00000000   15.999405
  6727     UF_Si      1      MOL     Si6727     6727    0.00000000   28.085499
  6728     UF_Si      1      MOL     Si6728     6728    0.00000000   28.085499
  6729     UF_Si      1      MOL     Si6729     6729    0.00000000   28.085499
  6730     UF_Si      1      MOL     Si6730     6730    0.00000000   28.085499
  6731     UF_Si      1      MOL     Si6731     6731    0.00000000   28.085499
  6732     UF_Si      1      MOL     Si6732     6732    0.00000000   28.085499
  6733     UF_Si      1      MOL     Si6733     6733    0.00000000   28.085499
  6734     UF_Si      1      MOL     Si6734     6734    0.00000000   28.085499
  6735     UF_Si      1      MOL     Si6735     6735    0.00000000   28.085499
  6736     UF_Si      1      MOL     Si6736     6736    0.00000000   28.085499
  6737     UF_Si      1      MOL     Si6737     6737    0.00000000   28.085499
  6738     UF_Si      1      MOL     Si6738     6738    0.00000000   28.085499
  6739     os         1      MOL     O6739      6739    0.00000000   15.999405
  6740     os         1      MOL     O6740      6740    0.00000000   15.999405
  6741     os         1      MOL     O6741      6741    0.00000000   15.999405
  6742     os         1      MOL     O6742      6742    0.00000000   15.999405
  6743     os         1      MOL     O6743      6743    0.00000000   15.999405
  6744     os         1      MOL     O6744      6744    0.00000000   15.999405
  6745     os         1      MOL     O6745      6745    0.00000000   15.999405
  6746     os         1      MOL     O6746      6746    0.00000000   15.999405
  6747     os         1      MOL     O6747      6747    0.00000000   15.999405
  6748     os         1      MOL     O6748      6748    0.00000000   15.999405
  6749     os         1      MOL     O6749      6749    0.00000000   15.999405
  6750     os         1      MOL     O6750      6750    0.00000000   15.999405
  6751     os         1      MOL     O6751      6751    0.00000000   15.999405
  6752     os         1      MOL     O6752      6752    0.00000000   15.999405
  6753     os         1      MOL     O6753      6753    0.00000000   15.999405
  6754     os         1      MOL     O6754      6754    0.00000000   15.999405
  6755     os         1      MOL     O6755      6755    0.00000000   15.999405
  6756     os         1      MOL     O6756      6756    0.00000000   15.999405
  6757     os         1      MOL     O6757      6757    0.00000000   15.999405
  6758     os         1      MOL     O6758      6758    0.00000000   15.999405
  6759     os         1      MOL     O6759      6759    0.00000000   15.999405
  6760     os         1      MOL     O6760      6760    0.00000000   15.999405
  6761     os         1      MOL     O6761      6761    0.00000000   15.999405
  6762     os         1      MOL     O6762      6762    0.00000000   15.999405
  6763     os         1      MOL     O6763      6763    0.00000000   15.999405
  6764     os         1      MOL     O6764      6764    0.00000000   15.999405
  6765     UF_Si      1      MOL     Si6765     6765    0.00000000   28.085499
  6766     UF_Si      1      MOL     Si6766     6766    0.00000000   28.085499
  6767     UF_Si      1      MOL     Si6767     6767    0.00000000   28.085499
  6768     UF_Si      1      MOL     Si6768     6768    0.00000000   28.085499
  6769     UF_Si      1      MOL     Si6769     6769    0.00000000   28.085499
  6770     UF_Si      1      MOL     Si6770     6770    0.00000000   28.085499
  6771     UF_Si      1      MOL     Si6771     6771    0.00000000   28.085499
  6772     UF_Si      1      MOL     Si6772     6772    0.00000000   28.085499
  6773     UF_Si      1      MOL     Si6773     6773    0.00000000   28.085499
  6774     UF_Si      1      MOL     Si6774     6774    0.00000000   28.085499
  6775     UF_Si      1      MOL     Si6775     6775    0.00000000   28.085499
  6776     UF_Si      1      MOL     Si6776     6776    0.00000000   28.085499
  6777     os         1      MOL     O6777      6777    0.00000000   15.999405
  6778     os         1      MOL     O6778      6778    0.00000000   15.999405
  6779     os         1      MOL     O6779      6779    0.00000000   15.999405
  6780     o          1      MOL     O6780      6780    0.00000000   15.999405
  6781     os         1      MOL     O6781      6781    0.00000000   15.999405
  6782     os         1      MOL     O6782      6782    0.00000000   15.999405
  6783     os         1      MOL     O6783      6783    0.00000000   15.999405
  6784     os         1      MOL     O6784      6784    0.00000000   15.999405
  6785     os         1      MOL     O6785      6785    0.00000000   15.999405
  6786     o          1      MOL     O6786      6786    0.00000000   15.999405
  6787     os         1      MOL     O6787      6787    0.00000000   15.999405
  6788     os         1      MOL     O6788      6788    0.00000000   15.999405
  6789     os         1      MOL     O6789      6789    0.00000000   15.999405
  6790     os         1      MOL     O6790      6790    0.00000000   15.999405
  6791     os         1      MOL     O6791      6791    0.00000000   15.999405
  6792     os         1      MOL     O6792      6792    0.00000000   15.999405
  6793     os         1      MOL     O6793      6793    0.00000000   15.999405
  6794     os         1      MOL     O6794      6794    0.00000000   15.999405
  6795     os         1      MOL     O6795      6795    0.00000000   15.999405
  6796     os         1      MOL     O6796      6796    0.00000000   15.999405
  6797     os         1      MOL     O6797      6797    0.00000000   15.999405
  6798     os         1      MOL     O6798      6798    0.00000000   15.999405
  6799     UF_Si      1      MOL     Si6799     6799    0.00000000   28.085499
  6800     UF_Si      1      MOL     Si6800     6800    0.00000000   28.085499
  6801     UF_Si      1      MOL     Si6801     6801    0.00000000   28.085499
  6802     UF_Si      1      MOL     Si6802     6802    0.00000000   28.085499
  6803     UF_Si      1      MOL     Si6803     6803    0.00000000   28.085499
  6804     UF_Si      1      MOL     Si6804     6804    0.00000000   28.085499
  6805     UF_Si      1      MOL     Si6805     6805    0.00000000   28.085499
  6806     UF_Si      1      MOL     Si6806     6806    0.00000000   28.085499
  6807     UF_Si      1      MOL     Si6807     6807    0.00000000   28.085499
  6808     UF_Si      1      MOL     Si6808     6808    0.00000000   28.085499
  6809     UF_Si      1      MOL     Si6809     6809    0.00000000   28.085499
  6810     UF_Si      1      MOL     Si6810     6810    0.00000000   28.085499
  6811     os         1      MOL     O6811      6811    0.00000000   15.999405
  6812     os         1      MOL     O6812      6812    0.00000000   15.999405
  6813     os         1      MOL     O6813      6813    0.00000000   15.999405
  6814     os         1      MOL     O6814      6814    0.00000000   15.999405
  6815     os         1      MOL     O6815      6815    0.00000000   15.999405
  6816     o          1      MOL     O6816      6816    0.00000000   15.999405
  6817     os         1      MOL     O6817      6817    0.00000000   15.999405
  6818     os         1      MOL     O6818      6818    0.00000000   15.999405
  6819     os         1      MOL     O6819      6819    0.00000000   15.999405
  6820     os         1      MOL     O6820      6820    0.00000000   15.999405
  6821     os         1      MOL     O6821      6821    0.00000000   15.999405
  6822     os         1      MOL     O6822      6822    0.00000000   15.999405
  6823     os         1      MOL     O6823      6823    0.00000000   15.999405
  6824     o          1      MOL     O6824      6824    0.00000000   15.999405
  6825     os         1      MOL     O6825      6825    0.00000000   15.999405
  6826     o          1      MOL     O6826      6826    0.00000000   15.999405
  6827     os         1      MOL     O6827      6827    0.00000000   15.999405
  6828     os         1      MOL     O6828      6828    0.00000000   15.999405
  6829     os         1      MOL     O6829      6829    0.00000000   15.999405
  6830     os         1      MOL     O6830      6830    0.00000000   15.999405
  6831     os         1      MOL     O6831      6831    0.00000000   15.999405
  6832     os         1      MOL     O6832      6832    0.00000000   15.999405
  6833     UF_Si      1      MOL     Si6833     6833    0.00000000   28.085499
  6834     UF_Si      1      MOL     Si6834     6834    0.00000000   28.085499
  6835     UF_Si      1      MOL     Si6835     6835    0.00000000   28.085499
  6836     UF_Si      1      MOL     Si6836     6836    0.00000000   28.085499
  6837     UF_Si      1      MOL     Si6837     6837    0.00000000   28.085499
  6838     UF_Si      1      MOL     Si6838     6838    0.00000000   28.085499
  6839     UF_Si      1      MOL     Si6839     6839    0.00000000   28.085499
  6840     UF_Si      1      MOL     Si6840     6840    0.00000000   28.085499
  6841     UF_Si      1      MOL     Si6841     6841    0.00000000   28.085499
  6842     UF_Si      1      MOL     Si6842     6842    0.00000000   28.085499
  6843     UF_Si      1      MOL     Si6843     6843    0.00000000   28.085499
  6844     UF_Si      1      MOL     Si6844     6844    0.00000000   28.085499
  6845     o          1      MOL     O6845      6845    0.00000000   15.999405
  6846     os         1      MOL     O6846      6846    0.00000000   15.999405
  6847     os         1      MOL     O6847      6847    0.00000000   15.999405
  6848     os         1      MOL     O6848      6848    0.00000000   15.999405
  6849     os         1      MOL     O6849      6849    0.00000000   15.999405
  6850     os         1      MOL     O6850      6850    0.00000000   15.999405
  6851     os         1      MOL     O6851      6851    0.00000000   15.999405
  6852     os         1      MOL     O6852      6852    0.00000000   15.999405
  6853     os         1      MOL     O6853      6853    0.00000000   15.999405
  6854     os         1      MOL     O6854      6854    0.00000000   15.999405
  6855     os         1      MOL     O6855      6855    0.00000000   15.999405
  6856     os         1      MOL     O6856      6856    0.00000000   15.999405
  6857     os         1      MOL     O6857      6857    0.00000000   15.999405
  6858     os         1      MOL     O6858      6858    0.00000000   15.999405
  6859     os         1      MOL     O6859      6859    0.00000000   15.999405
  6860     os         1      MOL     O6860      6860    0.00000000   15.999405
  6861     os         1      MOL     O6861      6861    0.00000000   15.999405
  6862     os         1      MOL     O6862      6862    0.00000000   15.999405
  6863     os         1      MOL     O6863      6863    0.00000000   15.999405
  6864     os         1      MOL     O6864      6864    0.00000000   15.999405
  6865     os         1      MOL     O6865      6865    0.00000000   15.999405
  6866     os         1      MOL     O6866      6866    0.00000000   15.999405
  6867     UF_Si      1      MOL     Si6867     6867    0.00000000   28.085499
  6868     UF_Si      1      MOL     Si6868     6868    0.00000000   28.085499
  6869     UF_Si      1      MOL     Si6869     6869    0.00000000   28.085499
  6870     UF_Si      1      MOL     Si6870     6870    0.00000000   28.085499
  6871     UF_Si      1      MOL     Si6871     6871    0.00000000   28.085499
  6872     UF_Si      1      MOL     Si6872     6872    0.00000000   28.085499
  6873     UF_Si      1      MOL     Si6873     6873    0.00000000   28.085499
  6874     UF_Si      1      MOL     Si6874     6874    0.00000000   28.085499
  6875     UF_Si      1      MOL     Si6875     6875    0.00000000   28.085499
  6876     UF_Si      1      MOL     Si6876     6876    0.00000000   28.085499
  6877     UF_Si      1      MOL     Si6877     6877    0.00000000   28.085499
  6878     UF_Si      1      MOL     Si6878     6878    0.00000000   28.085499
  6879     os         1      MOL     O6879      6879    0.00000000   15.999405
  6880     os         1      MOL     O6880      6880    0.00000000   15.999405
  6881     os         1      MOL     O6881      6881    0.00000000   15.999405
  6882     os         1      MOL     O6882      6882    0.00000000   15.999405
  6883     o          1      MOL     O6883      6883    0.00000000   15.999405
  6884     os         1      MOL     O6884      6884    0.00000000   15.999405
  6885     os         1      MOL     O6885      6885    0.00000000   15.999405
  6886     os         1      MOL     O6886      6886    0.00000000   15.999405
  6887     os         1      MOL     O6887      6887    0.00000000   15.999405
  6888     os         1      MOL     O6888      6888    0.00000000   15.999405
  6889     os         1      MOL     O6889      6889    0.00000000   15.999405
  6890     o          1      MOL     O6890      6890    0.00000000   15.999405
  6891     os         1      MOL     O6891      6891    0.00000000   15.999405
  6892     os         1      MOL     O6892      6892    0.00000000   15.999405
  6893     os         1      MOL     O6893      6893    0.00000000   15.999405
  6894     os         1      MOL     O6894      6894    0.00000000   15.999405
  6895     os         1      MOL     O6895      6895    0.00000000   15.999405
  6896     o          1      MOL     O6896      6896    0.00000000   15.999405
  6897     os         1      MOL     O6897      6897    0.00000000   15.999405
  6898     os         1      MOL     O6898      6898    0.00000000   15.999405
  6899     o          1      MOL     O6899      6899    0.00000000   15.999405
  6900     os         1      MOL     O6900      6900    0.00000000   15.999405
  6901     UF_Si      1      MOL     Si6901     6901    0.00000000   28.085499
  6902     UF_Si      1      MOL     Si6902     6902    0.00000000   28.085499
  6903     UF_Si      1      MOL     Si6903     6903    0.00000000   28.085499
  6904     UF_Si      1      MOL     Si6904     6904    0.00000000   28.085499
  6905     UF_Si      1      MOL     Si6905     6905    0.00000000   28.085499
  6906     UF_Si      1      MOL     Si6906     6906    0.00000000   28.085499
  6907     UF_Si      1      MOL     Si6907     6907    0.00000000   28.085499
  6908     UF_Si      1      MOL     Si6908     6908    0.00000000   28.085499
  6909     UF_Si      1      MOL     Si6909     6909    0.00000000   28.085499
  6910     UF_Si      1      MOL     Si6910     6910    0.00000000   28.085499
  6911     UF_Si      1      MOL     Si6911     6911    0.00000000   28.085499
  6912     UF_Si      1      MOL     Si6912     6912    0.00000000   28.085499

