generated by VMD, t= 0.000000
7012
    0MOL    O      1   1.007   0.138   0.922
    0MOL    O      2   0.778   0.147   1.052
    0MOL    O      3   0.803   0.270   0.822
    0MOL    O      4   0.798   0.007   0.831
    0MOL    O      5   0.661   0.076   1.278
    0MOL    O      6   0.662   1.886   1.072
    0MOL    O      7   0.517   0.131   1.065
    0MOL    O      8   0.585   0.256   0.139
    0MOL    O      9   0.409   0.090   0.036
    0MOL    O     10   0.590   0.002   0.206
    0MOL    O     11   0.216   0.250   0.116
    0MOL    O     12   0.170   0.073   1.241
    0MOL    O     13   0.261   0.154   1.008
    0MOL    O     14   0.146   1.893   1.029
    0MOL    O     15   0.442   0.259   0.848
    0MOL    O     16   0.987   1.687   0.942
    0MOL    O     17   0.740   1.640   1.018
    0MOL    O     18   0.856   1.480   0.845
    0MOL    O     19   0.646   1.700   1.256
    0MOL    O     20   0.484   1.694   1.050
    0MOL    O     21   0.591   1.480   0.076
    0MOL    O     22   0.397   1.641   0.000
    0MOL    O     23   0.190   1.480   0.027
    0MOL    O     24   0.163   1.711   1.219
    0MOL    O     25   0.237   1.652   0.973
    0MOL    O     26   0.425   1.480   0.909
    0MOL    Si    27   0.847   0.140   0.906
    0MOL    Si    28   0.655   0.066   1.117
    0MOL    Si    29   0.561   0.106   0.086
    0MOL    Si    30   0.250   0.102   0.063
    0MOL    Si    31   0.145   0.071   1.082
    0MOL    Si    32   0.409   0.136   0.946
    0MOL    Si    33   0.843   1.633   0.894
    0MOL    Si    34   0.633   1.730   1.099
    0MOL    Si    35   0.549   1.634   0.053
    0MOL    Si    36   0.238   1.634   0.024
    0MOL    Si    37   0.132   1.736   1.063
    0MOL    Si    38   0.391   1.636   0.932
    0MOL    O     39   2.007   1.836   0.265
    0MOL    O     40   0.226   1.827   0.395
    0MOL    O     41   0.202   1.704   0.164
    0MOL    O     42   0.207   1.967   0.174
    0MOL    O     43   0.343   1.898   0.621
    0MOL    O     44   0.342   0.088   0.415
    0MOL    O     45   0.488   1.843   0.408
    0MOL    O     46   0.420   1.718   0.796
    0MOL    O     47   0.596   1.884   0.693
    0MOL    O     48   0.415   1.972   0.863
    0MOL    O     49   0.789   1.724   0.773
    0MOL    O     50   0.835   1.901   0.584
    0MOL    O     51   0.743   1.820   0.351
    0MOL    O     52   0.858   0.081   0.372
    0MOL    O     53   0.562   1.715   0.191
    0MOL    O     54   0.018   0.287   0.285
    0MOL    O     55   0.265   0.333   0.361
    0MOL    O     56   0.148   0.493   0.188
    0MOL    O     57   0.358   0.274   0.599
    0MOL    O     58   0.520   0.280   0.393
    0MOL    O     59   0.413   0.494   0.733
    0MOL    O     60   0.607   0.333   0.657
    0MOL    O     61   0.814   0.493   0.684
    0MOL    O     62   0.842   0.263   0.562
    0MOL    O     63   0.768   0.322   0.316
    0MOL    O     64   0.579   0.493   0.251
    0MOL    Si    65   0.158   1.833   0.249
    0MOL    Si    66   0.350   1.908   0.460
    0MOL    Si    67   0.444   1.868   0.743
    0MOL    Si    68   0.754   1.872   0.720
    0MOL    Si    69   0.860   1.903   0.425
    0MOL    Si    70   0.596   1.838   0.289
    0MOL    Si    71   0.162   0.341   0.237
    0MOL    Si    72   0.371   0.244   0.442
    0MOL    Si    73   0.455   0.340   0.710
    0MOL    Si    74   0.766   0.340   0.681
    0MOL    Si    75   0.873   0.238   0.406
    0MOL    Si    76   0.613   0.338   0.275
    0MOL    O     77   0.002   0.849   1.049
    0MOL    O     78   1.783   0.840   0.919
    0MOL    O     79   1.807   0.717   1.150
    0MOL    O     80   1.802   0.980   1.140
    0MOL    O     81   1.666   0.911   0.694
    0MOL    O     82   1.667   1.075   0.900
    0MOL    O     83   1.521   0.856   0.906
    0MOL    O     84   1.589   0.731   0.518
    0MOL    O     85   1.413   0.897   0.621
    0MOL    O     86   1.594   0.985   0.452
    0MOL    O     87   1.221   0.737   0.541
    0MOL    O     88   1.175   0.914   0.730
    0MOL    O     89   1.266   0.833   0.963
    0MOL    O     90   1.151   1.068   0.942
    0MOL    O     91   1.447   0.728   1.123
    0MOL    O     92   1.991   1.273   1.029
    0MOL    O     93   1.744   1.320   0.954
    0MOL    O     94   1.861   1.480   1.126
    0MOL    O     95   1.651   1.261   0.715
    0MOL    O     96   1.489   1.267   0.921
    0MOL    O     97   1.596   1.480   0.581
    0MOL    O     98   1.402   1.320   0.657
    0MOL    O     99   1.195   1.480   0.630
    0MOL    O    100   1.167   1.249   0.752
    0MOL    O    101   1.241   1.309   0.998
    0MOL    O    102   1.430   1.480   1.063
    0MOL    Si   103   1.851   0.847   1.065
    0MOL    Si   104   1.659   0.921   0.854
    0MOL    Si   105   1.565   0.881   0.571
    0MOL    Si   106   1.255   0.885   0.594
    0MOL    Si   107   1.149   0.916   0.889
    0MOL    Si   108   1.413   0.851   1.026
    0MOL    Si   109   1.847   1.328   1.077
    0MOL    Si   110   1.638   1.231   0.873
    0MOL    Si   111   1.554   1.327   0.604
    0MOL    Si   112   1.243   1.327   0.633
    0MOL    Si   113   1.136   1.225   0.909
    0MOL    Si   114   1.396   1.325   1.039
    0MOL    O    115   1.002   1.125   0.392
    0MOL    O    116   1.231   1.134   0.262
    0MOL    O    117   1.206   1.256   0.493
    0MOL    O    118   1.211   0.994   0.483
    0MOL    O    119   1.348   1.063   0.037
    0MOL    O    120   1.347   0.899   0.242
    0MOL    O    121   1.493   1.118   0.249
    0MOL    O    122   1.424   1.243   1.175
    0MOL    O    123   1.600   1.077   1.278
    0MOL    O    124   1.419   0.989   1.109
    0MOL    O    125   1.793   1.237   1.198
    0MOL    O    126   1.839   1.060   0.073
    0MOL    O    127   1.748   1.141   0.306
    0MOL    O    128   1.863   0.906   0.285
    0MOL    O    129   1.567   1.246   0.466
    0MOL    O    130   1.022   0.700   0.372
    0MOL    O    131   1.269   0.653   0.297
    0MOL    O    132   1.153   0.493   0.469
    0MOL    O    133   1.363   0.713   0.058
    0MOL    O    134   1.525   0.707   0.264
    0MOL    O    135   1.418   0.494   1.238
    0MOL    O    136   1.612   0.654   1.314
    0MOL    O    137   1.818   0.494   1.287
    0MOL    O    138   1.847   0.724   0.095
    0MOL    O    139   1.773   0.665   0.341
    0MOL    O    140   1.584   0.493   0.406
    0MOL    Si   141   1.162   1.127   0.408
    0MOL    Si   142   1.354   1.053   0.197
    0MOL    Si   143   1.448   1.093   1.228
    0MOL    Si   144   1.759   1.088   1.251
    0MOL    Si   145   1.864   1.058   0.232
    0MOL    Si   146   1.600   1.123   0.368
    0MOL    Si   147   1.166   0.646   0.420
    0MOL    Si   148   1.376   0.743   0.215
    0MOL    Si   149   1.460   0.647   1.261
    0MOL    Si   150   1.771   0.647   1.290
    0MOL    Si   151   1.877   0.749   0.251
    0MOL    Si   152   1.618   0.649   0.382
    0MOL    O    153   1.002   1.836   0.392
    0MOL    O    154   1.231   1.827   0.262
    0MOL    O    155   1.206   1.704   0.493
    0MOL    O    156   1.211   1.967   0.483
    0MOL    O    157   1.348   1.898   0.037
    0MOL    O    158   1.347   0.088   0.242
    0MOL    O    159   1.493   1.843   0.249
    0MOL    O    160   1.424   1.718   1.175
    0MOL    O    161   1.600   1.884   1.278
    0MOL    O    162   1.419   1.972   1.109
    0MOL    O    163   1.793   1.724   1.198
    0MOL    O    164   1.839   1.901   0.073
    0MOL    O    165   1.748   1.820   0.306
    0MOL    O    166   1.863   0.081   0.285
    0MOL    O    167   1.567   1.715   0.466
    0MOL    O    168   1.022   0.287   0.372
    0MOL    O    169   1.269   0.333   0.297
    0MOL    O    170   1.363   0.274   0.058
    0MOL    O    171   1.525   0.280   0.264
    0MOL    O    172   1.612   0.333   1.314
    0MOL    O    173   1.847   0.263   0.095
    0MOL    O    174   1.773   0.322   0.341
    0MOL    Si   175   1.162   1.833   0.408
    0MOL    Si   176   1.354   1.908   0.197
    0MOL    Si   177   1.448   1.868   1.228
    0MOL    Si   178   1.759   1.872   1.251
    0MOL    Si   179   1.864   1.903   0.232
    0MOL    Si   180   1.600   1.838   0.368
    0MOL    Si   181   1.166   0.341   0.420
    0MOL    Si   182   1.376   0.244   0.215
    0MOL    Si   183   1.460   0.340   1.261
    0MOL    Si   184   1.771   0.340   1.290
    0MOL    Si   185   1.877   0.238   0.251
    0MOL    Si   186   1.618   0.338   0.382
    0MOL    O    187   0.002   0.138   1.049
    0MOL    O    188   1.783   0.147   0.919
    0MOL    O    189   1.807   0.270   1.150
    0MOL    O    190   1.802   0.007   1.140
    0MOL    O    191   1.666   0.076   0.694
    0MOL    O    192   1.667   1.886   0.900
    0MOL    O    193   1.521   0.131   0.906
    0MOL    O    194   1.589   0.256   0.518
    0MOL    O    195   1.413   0.090   0.621
    0MOL    O    196   1.594   0.002   0.452
    0MOL    O    197   1.221   0.250   0.541
    0MOL    O    198   1.175   0.073   0.730
    0MOL    O    199   1.266   0.154   0.963
    0MOL    O    200   1.151   1.893   0.942
    0MOL    O    201   1.447   0.259   1.123
    0MOL    O    202   1.991   1.687   1.029
    0MOL    O    203   1.744   1.640   0.954
    0MOL    O    204   1.651   1.700   0.715
    0MOL    O    205   1.489   1.694   0.921
    0MOL    O    206   1.402   1.641   0.657
    0MOL    O    207   1.167   1.711   0.752
    0MOL    O    208   1.241   1.652   0.998
    0MOL    Si   209   1.851   0.140   1.065
    0MOL    Si   210   1.659   0.066   0.854
    0MOL    Si   211   1.565   0.106   0.571
    0MOL    Si   212   1.255   0.102   0.594
    0MOL    Si   213   1.149   0.071   0.889
    0MOL    Si   214   1.413   0.136   1.026
    0MOL    Si   215   1.847   1.633   1.077
    0MOL    Si   216   1.638   1.730   0.873
    0MOL    Si   217   1.554   1.634   0.604
    0MOL    Si   218   1.243   1.634   0.633
    0MOL    Si   219   1.136   1.736   0.909
    0MOL    Si   220   1.396   1.636   1.039
    0MOL    O    221   2.007   1.125   0.265
    0MOL    O    222   0.226   1.134   0.395
    0MOL    O    223   0.202   1.256   0.164
    0MOL    O    224   0.207   0.994   0.174
    0MOL    O    225   0.343   1.063   0.621
    0MOL    O    226   0.342   0.899   0.415
    0MOL    O    227   0.488   1.118   0.408
    0MOL    O    228   0.420   1.243   0.796
    0MOL    O    229   0.596   1.077   0.693
    0MOL    O    230   0.415   0.989   0.863
    0MOL    O    231   0.789   1.237   0.773
    0MOL    O    232   0.835   1.060   0.584
    0MOL    O    233   0.743   1.141   0.351
    0MOL    O    234   0.858   0.906   0.372
    0MOL    O    235   0.562   1.246   0.191
    0MOL    O    236   0.018   0.700   0.285
    0MOL    O    237   0.265   0.653   0.361
    0MOL    O    238   0.358   0.713   0.599
    0MOL    O    239   0.520   0.707   0.393
    0MOL    O    240   0.607   0.654   0.657
    0MOL    O    241   0.842   0.724   0.562
    0MOL    O    242   0.768   0.665   0.316
    0MOL    Si   243   0.158   1.127   0.249
    0MOL    Si   244   0.350   1.053   0.460
    0MOL    Si   245   0.444   1.093   0.743
    0MOL    Si   246   0.754   1.088   0.720
    0MOL    Si   247   0.860   1.058   0.425
    0MOL    Si   248   0.596   1.123   0.289
    0MOL    Si   249   0.162   0.646   0.237
    0MOL    Si   250   0.371   0.743   0.442
    0MOL    Si   251   0.455   0.647   0.710
    0MOL    Si   252   0.766   0.647   0.681
    0MOL    Si   253   0.873   0.749   0.406
    0MOL    Si   254   0.613   0.649   0.275
    0MOL    O    255   1.007   0.849   0.922
    0MOL    O    256   0.778   0.840   1.052
    0MOL    O    257   0.803   0.717   0.822
    0MOL    O    258   0.798   0.980   0.831
    0MOL    O    259   0.661   0.911   1.278
    0MOL    O    260   0.662   1.075   1.072
    0MOL    O    261   0.517   0.856   1.065
    0MOL    O    262   0.585   0.731   0.139
    0MOL    O    263   0.409   0.897   0.036
    0MOL    O    264   0.590   0.985   0.206
    0MOL    O    265   0.216   0.737   0.116
    0MOL    O    266   0.170   0.914   1.241
    0MOL    O    267   0.261   0.833   1.008
    0MOL    O    268   0.146   1.068   1.029
    0MOL    O    269   0.442   0.728   0.848
    0MOL    O    270   0.987   1.273   0.942
    0MOL    O    271   0.740   1.320   1.018
    0MOL    O    272   0.646   1.261   1.256
    0MOL    O    273   0.484   1.267   1.050
    0MOL    O    274   0.397   1.320   0.000
    0MOL    O    275   0.163   1.249   1.219
    0MOL    O    276   0.237   1.309   0.973
    0MOL    Si   277   0.847   0.847   0.906
    0MOL    Si   278   0.655   0.921   1.117
    0MOL    Si   279   0.561   0.881   0.086
    0MOL    Si   280   0.250   0.885   0.063
    0MOL    Si   281   0.145   0.916   1.082
    0MOL    Si   282   0.409   0.851   0.946
    0MOL    Si   283   0.843   1.328   0.894
    0MOL    Si   284   0.633   1.231   1.099
    0MOL    Si   285   0.549   1.327   0.053
    0MOL    Si   286   0.238   1.327   0.024
    0MOL    Si   287   0.132   1.225   1.063
    0MOL    Si   288   0.391   1.325   0.932
    0MOL    O    289   1.007   0.138   2.237
    0MOL    O    290   0.778   0.147   2.367
    0MOL    O    291   0.803   0.270   2.136
    0MOL    O    292   0.798   0.007   2.146
    0MOL    O    293   0.661   0.076   2.592
    0MOL    O    294   0.662   1.886   2.386
    0MOL    O    295   0.517   0.131   2.380
    0MOL    O    296   0.585   0.256   1.454
    0MOL    O    297   0.409   0.090   1.350
    0MOL    O    298   0.590   0.002   1.520
    0MOL    O    299   0.216   0.250   1.430
    0MOL    O    300   0.170   0.073   2.555
    0MOL    O    301   0.261   0.154   2.322
    0MOL    O    302   0.146   1.893   2.343
    0MOL    O    303   0.442   0.259   2.163
    0MOL    O    304   0.987   1.687   2.256
    0MOL    O    305   0.740   1.640   2.332
    0MOL    O    306   0.856   1.480   2.159
    0MOL    O    307   0.646   1.700   2.571
    0MOL    O    308   0.484   1.694   2.364
    0MOL    O    309   0.591   1.480   1.390
    0MOL    O    310   0.397   1.641   1.315
    0MOL    O    311   0.190   1.480   1.341
    0MOL    O    312   0.163   1.711   2.533
    0MOL    O    313   0.237   1.652   2.288
    0MOL    O    314   0.425   1.480   2.223
    0MOL    Si   315   0.847   0.140   2.221
    0MOL    Si   316   0.655   0.066   2.431
    0MOL    Si   317   0.561   0.106   1.400
    0MOL    Si   318   0.250   0.102   1.377
    0MOL    Si   319   0.145   0.071   2.396
    0MOL    Si   320   0.409   0.136   2.260
    0MOL    Si   321   0.843   1.633   2.208
    0MOL    Si   322   0.633   1.730   2.413
    0MOL    Si   323   0.549   1.634   1.367
    0MOL    Si   324   0.238   1.634   1.338
    0MOL    Si   325   0.132   1.736   2.377
    0MOL    Si   326   0.391   1.636   2.246
    0MOL    O    327   2.007   1.836   1.579
    0MOL    O    328   0.226   1.827   1.709
    0MOL    O    329   0.202   1.704   1.479
    0MOL    O    330   0.207   1.967   1.489
    0MOL    O    331   0.343   1.898   1.935
    0MOL    O    332   0.342   0.088   1.729
    0MOL    O    333   0.488   1.843   1.722
    0MOL    O    334   0.420   1.718   2.111
    0MOL    O    335   0.596   1.884   2.007
    0MOL    O    336   0.415   1.972   2.177
    0MOL    O    337   0.789   1.724   2.087
    0MOL    O    338   0.835   1.901   1.898
    0MOL    O    339   0.743   1.820   1.665
    0MOL    O    340   0.858   0.081   1.686
    0MOL    O    341   0.562   1.715   1.506
    0MOL    O    342   0.018   0.287   1.599
    0MOL    O    343   0.265   0.333   1.675
    0MOL    O    344   0.148   0.494   1.502
    0MOL    O    345   0.358   0.274   1.914
    0MOL    O    346   0.520   0.280   1.707
    0MOL    O    347   0.413   0.494   2.047
    0MOL    O    348   0.607   0.333   1.972
    0MOL    O    349   0.814   0.494   1.998
    0MOL    O    350   0.842   0.263   1.876
    0MOL    O    351   0.768   0.322   1.630
    0MOL    O    352   0.579   0.494   1.566
    0MOL    Si   353   0.158   1.833   1.564
    0MOL    Si   354   0.350   1.908   1.774
    0MOL    Si   355   0.444   1.868   2.057
    0MOL    Si   356   0.754   1.872   2.034
    0MOL    Si   357   0.860   1.903   1.739
    0MOL    Si   358   0.596   1.838   1.603
    0MOL    Si   359   0.162   0.341   1.551
    0MOL    Si   360   0.371   0.244   1.756
    0MOL    Si   361   0.455   0.340   2.024
    0MOL    Si   362   0.766   0.340   1.995
    0MOL    Si   363   0.873   0.238   1.720
    0MOL    Si   364   0.613   0.338   1.589
    0MOL    O    365   0.002   0.849   2.363
    0MOL    O    366   1.783   0.840   2.233
    0MOL    O    367   1.807   0.717   2.464
    0MOL    O    368   1.802   0.980   2.454
    0MOL    O    369   1.666   0.911   2.008
    0MOL    O    370   1.667   1.075   2.214
    0MOL    O    371   1.521   0.856   2.220
    0MOL    O    372   1.589   0.731   1.832
    0MOL    O    373   1.413   0.897   1.935
    0MOL    O    374   1.594   0.985   1.766
    0MOL    O    375   1.221   0.737   1.855
    0MOL    O    376   1.175   0.914   2.044
    0MOL    O    377   1.266   0.833   2.277
    0MOL    O    378   1.151   1.068   2.256
    0MOL    O    379   1.447   0.728   2.437
    0MOL    O    380   1.991   1.273   2.343
    0MOL    O    381   1.744   1.320   2.268
    0MOL    O    382   1.861   1.480   2.440
    0MOL    O    383   1.651   1.261   2.029
    0MOL    O    384   1.489   1.267   2.235
    0MOL    O    385   1.596   1.480   1.895
    0MOL    O    386   1.402   1.320   1.971
    0MOL    O    387   1.195   1.480   1.944
    0MOL    O    388   1.167   1.249   2.067
    0MOL    O    389   1.241   1.309   2.312
    0MOL    O    390   1.430   1.480   2.377
    0MOL    Si   391   1.851   0.847   2.379
    0MOL    Si   392   1.659   0.921   2.168
    0MOL    Si   393   1.565   0.881   1.885
    0MOL    Si   394   1.255   0.885   1.908
    0MOL    Si   395   1.149   0.916   2.204
    0MOL    Si   396   1.413   0.851   2.340
    0MOL    Si   397   1.847   1.328   2.391
    0MOL    Si   398   1.638   1.231   2.187
    0MOL    Si   399   1.554   1.327   1.918
    0MOL    Si   400   1.243   1.327   1.947
    0MOL    Si   401   1.136   1.225   2.223
    0MOL    Si   402   1.396   1.325   2.354
    0MOL    O    403   1.002   1.125   1.706
    0MOL    O    404   1.231   1.134   1.576
    0MOL    O    405   1.206   1.256   1.807
    0MOL    O    406   1.211   0.994   1.797
    0MOL    O    407   1.348   1.063   1.351
    0MOL    O    408   1.347   0.899   1.557
    0MOL    O    409   1.493   1.118   1.563
    0MOL    O    410   1.424   1.243   2.489
    0MOL    O    411   1.600   1.077   2.592
    0MOL    O    412   1.419   0.989   2.423
    0MOL    O    413   1.793   1.237   2.512
    0MOL    O    414   1.839   1.060   1.387
    0MOL    O    415   1.748   1.141   1.620
    0MOL    O    416   1.863   0.906   1.599
    0MOL    O    417   1.567   1.246   1.780
    0MOL    O    418   1.022   0.700   1.686
    0MOL    O    419   1.269   0.653   1.611
    0MOL    O    420   1.153   0.494   1.783
    0MOL    O    421   1.363   0.713   1.372
    0MOL    O    422   1.525   0.707   1.578
    0MOL    O    423   1.418   0.494   2.552
    0MOL    O    424   1.612   0.654   2.628
    0MOL    O    425   1.818   0.494   2.601
    0MOL    O    426   1.847   0.724   1.410
    0MOL    O    427   1.773   0.665   1.655
    0MOL    O    428   1.584   0.494   1.720
    0MOL    Si   429   1.162   1.127   1.722
    0MOL    Si   430   1.354   1.053   1.511
    0MOL    Si   431   1.448   1.093   2.542
    0MOL    Si   432   1.759   1.088   2.565
    0MOL    Si   433   1.864   1.058   1.546
    0MOL    Si   434   1.600   1.123   1.683
    0MOL    Si   435   1.166   0.646   1.734
    0MOL    Si   436   1.376   0.743   1.530
    0MOL    Si   437   1.460   0.647   2.576
    0MOL    Si   438   1.771   0.647   2.604
    0MOL    Si   439   1.877   0.749   1.566
    0MOL    Si   440   1.618   0.649   1.696
    0MOL    O    441   1.002   1.836   1.706
    0MOL    O    442   1.231   1.827   1.576
    0MOL    O    443   1.206   1.704   1.807
    0MOL    O    444   1.211   1.967   1.797
    0MOL    O    445   1.348   1.898   1.351
    0MOL    O    446   1.347   0.088   1.557
    0MOL    O    447   1.493   1.843   1.563
    0MOL    O    448   1.424   1.718   2.489
    0MOL    O    449   1.600   1.884   2.592
    0MOL    O    450   1.419   1.972   2.423
    0MOL    O    451   1.793   1.724   2.512
    0MOL    O    452   1.839   1.901   1.387
    0MOL    O    453   1.748   1.820   1.620
    0MOL    O    454   1.863   0.081   1.599
    0MOL    O    455   1.567   1.715   1.780
    0MOL    O    456   1.022   0.287   1.686
    0MOL    O    457   1.269   0.333   1.611
    0MOL    O    458   1.363   0.274   1.372
    0MOL    O    459   1.525   0.280   1.578
    0MOL    O    460   1.612   0.333   2.628
    0MOL    O    461   1.847   0.263   1.410
    0MOL    O    462   1.773   0.322   1.655
    0MOL    Si   463   1.162   1.833   1.722
    0MOL    Si   464   1.354   1.908   1.511
    0MOL    Si   465   1.448   1.868   2.542
    0MOL    Si   466   1.759   1.872   2.565
    0MOL    Si   467   1.864   1.903   1.546
    0MOL    Si   468   1.600   1.838   1.683
    0MOL    Si   469   1.166   0.341   1.734
    0MOL    Si   470   1.376   0.244   1.530
    0MOL    Si   471   1.460   0.340   2.576
    0MOL    Si   472   1.771   0.340   2.604
    0MOL    Si   473   1.877   0.238   1.566
    0MOL    Si   474   1.618   0.338   1.696
    0MOL    O    475   0.002   0.138   2.363
    0MOL    O    476   1.783   0.147   2.233
    0MOL    O    477   1.807   0.270   2.464
    0MOL    O    478   1.802   0.007   2.454
    0MOL    O    479   1.666   0.076   2.008
    0MOL    O    480   1.667   1.886   2.214
    0MOL    O    481   1.521   0.131   2.220
    0MOL    O    482   1.589   0.256   1.832
    0MOL    O    483   1.413   0.090   1.935
    0MOL    O    484   1.594   0.002   1.766
    0MOL    O    485   1.221   0.250   1.855
    0MOL    O    486   1.175   0.073   2.044
    0MOL    O    487   1.266   0.154   2.277
    0MOL    O    488   1.151   1.893   2.256
    0MOL    O    489   1.447   0.259   2.437
    0MOL    O    490   1.991   1.687   2.343
    0MOL    O    491   1.744   1.640   2.268
    0MOL    O    492   1.651   1.700   2.029
    0MOL    O    493   1.489   1.694   2.235
    0MOL    O    494   1.402   1.641   1.971
    0MOL    O    495   1.167   1.711   2.067
    0MOL    O    496   1.241   1.652   2.312
    0MOL    Si   497   1.851   0.140   2.379
    0MOL    Si   498   1.659   0.066   2.168
    0MOL    Si   499   1.565   0.106   1.885
    0MOL    Si   500   1.255   0.102   1.908
    0MOL    Si   501   1.149   0.071   2.204
    0MOL    Si   502   1.413   0.136   2.340
    0MOL    Si   503   1.847   1.633   2.391
    0MOL    Si   504   1.638   1.730   2.187
    0MOL    Si   505   1.554   1.634   1.918
    0MOL    Si   506   1.243   1.634   1.947
    0MOL    Si   507   1.136   1.736   2.223
    0MOL    Si   508   1.396   1.636   2.354
    0MOL    O    509   2.007   1.125   1.579
    0MOL    O    510   0.226   1.134   1.709
    0MOL    O    511   0.202   1.256   1.479
    0MOL    O    512   0.207   0.994   1.489
    0MOL    O    513   0.343   1.063   1.935
    0MOL    O    514   0.342   0.899   1.729
    0MOL    O    515   0.488   1.118   1.722
    0MOL    O    516   0.420   1.243   2.111
    0MOL    O    517   0.596   1.077   2.007
    0MOL    O    518   0.415   0.989   2.177
    0MOL    O    519   0.789   1.237   2.087
    0MOL    O    520   0.835   1.060   1.898
    0MOL    O    521   0.743   1.141   1.665
    0MOL    O    522   0.858   0.906   1.686
    0MOL    O    523   0.562   1.246   1.506
    0MOL    O    524   0.018   0.700   1.599
    0MOL    O    525   0.265   0.653   1.675
    0MOL    O    526   0.358   0.713   1.914
    0MOL    O    527   0.520   0.707   1.707
    0MOL    O    528   0.607   0.654   1.972
    0MOL    O    529   0.842   0.724   1.876
    0MOL    O    530   0.768   0.665   1.630
    0MOL    Si   531   0.158   1.127   1.564
    0MOL    Si   532   0.350   1.053   1.774
    0MOL    Si   533   0.444   1.093   2.057
    0MOL    Si   534   0.754   1.088   2.034
    0MOL    Si   535   0.860   1.058   1.739
    0MOL    Si   536   0.596   1.123   1.603
    0MOL    Si   537   0.162   0.646   1.551
    0MOL    Si   538   0.371   0.743   1.756
    0MOL    Si   539   0.455   0.647   2.024
    0MOL    Si   540   0.766   0.647   1.995
    0MOL    Si   541   0.873   0.749   1.720
    0MOL    Si   542   0.613   0.649   1.589
    0MOL    O    543   1.007   0.849   2.237
    0MOL    O    544   0.778   0.840   2.367
    0MOL    O    545   0.803   0.717   2.136
    0MOL    O    546   0.798   0.980   2.146
    0MOL    O    547   0.661   0.911   2.592
    0MOL    O    548   0.662   1.075   2.386
    0MOL    O    549   0.517   0.856   2.380
    0MOL    O    550   0.585   0.731   1.454
    0MOL    O    551   0.409   0.897   1.350
    0MOL    O    552   0.590   0.985   1.520
    0MOL    O    553   0.216   0.737   1.430
    0MOL    O    554   0.170   0.914   2.555
    0MOL    O    555   0.261   0.833   2.322
    0MOL    O    556   0.146   1.068   2.343
    0MOL    O    557   0.442   0.728   2.163
    0MOL    O    558   0.987   1.273   2.256
    0MOL    O    559   0.740   1.320   2.332
    0MOL    O    560   0.646   1.261   2.571
    0MOL    O    561   0.484   1.267   2.364
    0MOL    O    562   0.397   1.320   1.315
    0MOL    O    563   0.163   1.249   2.533
    0MOL    O    564   0.237   1.309   2.288
    0MOL    Si   565   0.847   0.847   2.221
    0MOL    Si   566   0.655   0.921   2.431
    0MOL    Si   567   0.561   0.881   1.400
    0MOL    Si   568   0.250   0.885   1.377
    0MOL    Si   569   0.145   0.916   2.396
    0MOL    Si   570   0.409   0.851   2.260
    0MOL    Si   571   0.843   1.328   2.208
    0MOL    Si   572   0.633   1.231   2.413
    0MOL    Si   573   0.549   1.327   1.367
    0MOL    Si   574   0.238   1.327   1.338
    0MOL    Si   575   0.132   1.225   2.377
    0MOL    Si   576   0.391   1.325   2.246
    0MOL    O    577   1.007   0.138   3.551
    0MOL    O    578   0.778   0.147   3.681
    0MOL    O    579   0.803   0.270   3.450
    0MOL    O    580   0.798   0.007   3.460
    0MOL    O    581   0.661   0.076   3.906
    0MOL    O    582   0.662   1.886   3.700
    0MOL    O    583   0.517   0.131   3.694
    0MOL    O    584   0.585   0.256   2.768
    0MOL    O    585   0.409   0.090   2.665
    0MOL    O    586   0.590   0.002   2.834
    0MOL    O    587   0.216   0.250   2.744
    0MOL    O    588   0.170   0.073   3.869
    0MOL    O    589   0.261   0.154   3.636
    0MOL    O    590   0.146   1.893   3.658
    0MOL    O    591   0.442   0.259   3.477
    0MOL    O    592   0.987   1.687   3.571
    0MOL    O    593   0.740   1.640   3.646
    0MOL    O    594   0.856   1.480   3.474
    0MOL    O    595   0.646   1.700   3.885
    0MOL    O    596   0.484   1.694   3.678
    0MOL    O    597   0.591   1.480   2.705
    0MOL    O    598   0.397   1.641   2.629
    0MOL    O    599   0.190   1.480   2.655
    0MOL    O    600   0.163   1.711   3.847
    0MOL    O    601   0.237   1.652   3.602
    0MOL    O    602   0.425   1.480   3.537
    0MOL    Si   603   0.847   0.140   3.535
    0MOL    Si   604   0.655   0.066   3.746
    0MOL    Si   605   0.561   0.106   2.715
    0MOL    Si   606   0.250   0.102   2.692
    0MOL    Si   607   0.145   0.071   3.710
    0MOL    Si   608   0.409   0.136   3.574
    0MOL    Si   609   0.843   1.633   3.523
    0MOL    Si   610   0.633   1.730   3.727
    0MOL    Si   611   0.549   1.634   2.681
    0MOL    Si   612   0.238   1.634   2.652
    0MOL    Si   613   0.132   1.736   3.691
    0MOL    Si   614   0.391   1.636   3.560
    0MOL    O    615   2.007   1.836   2.894
    0MOL    O    616   0.226   1.827   3.024
    0MOL    O    617   0.202   1.704   2.793
    0MOL    O    618   0.207   1.967   2.803
    0MOL    O    619   0.343   1.898   3.249
    0MOL    O    620   0.342   0.088   3.043
    0MOL    O    621   0.488   1.843   3.037
    0MOL    O    622   0.420   1.718   3.425
    0MOL    O    623   0.596   1.884   3.322
    0MOL    O    624   0.415   1.972   3.491
    0MOL    O    625   0.789   1.724   3.401
    0MOL    O    626   0.835   1.901   3.212
    0MOL    O    627   0.743   1.820   2.979
    0MOL    O    628   0.858   0.081   3.001
    0MOL    O    629   0.562   1.715   2.820
    0MOL    O    630   0.018   0.287   2.913
    0MOL    O    631   0.265   0.333   2.989
    0MOL    O    632   0.148   0.494   2.817
    0MOL    O    633   0.358   0.274   3.228
    0MOL    O    634   0.520   0.280   3.021
    0MOL    O    635   0.413   0.494   3.362
    0MOL    O    636   0.607   0.333   3.286
    0MOL    O    637   0.814   0.494   3.312
    0MOL    O    638   0.842   0.263   3.190
    0MOL    O    639   0.768   0.322   2.945
    0MOL    O    640   0.579   0.494   2.880
    0MOL    Si   641   0.158   1.833   2.878
    0MOL    Si   642   0.350   1.908   3.088
    0MOL    Si   643   0.444   1.868   3.372
    0MOL    Si   644   0.754   1.872   3.349
    0MOL    Si   645   0.860   1.903   3.053
    0MOL    Si   646   0.596   1.838   2.917
    0MOL    Si   647   0.162   0.341   2.866
    0MOL    Si   648   0.371   0.244   3.070
    0MOL    Si   649   0.455   0.340   3.338
    0MOL    Si   650   0.766   0.340   3.310
    0MOL    Si   651   0.873   0.238   3.034
    0MOL    Si   652   0.613   0.338   2.903
    0MOL    O    653   0.002   0.849   3.677
    0MOL    O    654   1.783   0.840   3.547
    0MOL    O    655   1.807   0.717   3.778
    0MOL    O    656   1.802   0.980   3.768
    0MOL    O    657   1.666   0.911   3.322
    0MOL    O    658   1.667   1.075   3.528
    0MOL    O    659   1.521   0.856   3.534
    0MOL    O    660   1.589   0.731   3.146
    0MOL    O    661   1.413   0.897   3.249
    0MOL    O    662   1.594   0.985   3.080
    0MOL    O    663   1.221   0.737   3.170
    0MOL    O    664   1.175   0.914   3.359
    0MOL    O    665   1.266   0.833   3.592
    0MOL    O    666   1.151   1.068   3.570
    0MOL    O    667   1.447   0.728   3.751
    0MOL    O    668   1.991   1.273   3.658
    0MOL    O    669   1.744   1.320   3.582
    0MOL    O    670   1.861   1.480   3.754
    0MOL    O    671   1.651   1.261   3.343
    0MOL    O    672   1.489   1.267   3.550
    0MOL    O    673   1.596   1.480   3.209
    0MOL    O    674   1.402   1.320   3.285
    0MOL    O    675   1.195   1.480   3.259
    0MOL    O    676   1.167   1.249   3.381
    0MOL    O    677   1.241   1.309   3.626
    0MOL    O    678   1.430   1.480   3.691
    0MOL    Si   679   1.851   0.847   3.693
    0MOL    Si   680   1.659   0.921   3.483
    0MOL    Si   681   1.565   0.881   3.199
    0MOL    Si   682   1.255   0.885   3.222
    0MOL    Si   683   1.149   0.916   3.518
    0MOL    Si   684   1.413   0.851   3.654
    0MOL    Si   685   1.847   1.328   3.705
    0MOL    Si   686   1.638   1.231   3.501
    0MOL    Si   687   1.554   1.327   3.233
    0MOL    Si   688   1.243   1.327   3.262
    0MOL    Si   689   1.136   1.225   3.537
    0MOL    Si   690   1.396   1.325   3.668
    0MOL    O    691   1.002   1.125   3.020
    0MOL    O    692   1.231   1.134   2.890
    0MOL    O    693   1.206   1.256   3.121
    0MOL    O    694   1.211   0.994   3.111
    0MOL    O    695   1.348   1.063   2.665
    0MOL    O    696   1.347   0.899   2.871
    0MOL    O    697   1.493   1.118   2.877
    0MOL    O    698   1.424   1.243   3.803
    0MOL    O    699   1.600   1.077   3.906
    0MOL    O    700   1.419   0.989   3.737
    0MOL    O    701   1.793   1.237   3.827
    0MOL    O    702   1.839   1.060   2.702
    0MOL    O    703   1.748   1.141   2.935
    0MOL    O    704   1.863   0.906   2.913
    0MOL    O    705   1.567   1.246   3.094
    0MOL    O    706   1.022   0.700   3.000
    0MOL    O    707   1.269   0.653   2.925
    0MOL    O    708   1.153   0.494   3.097
    0MOL    O    709   1.363   0.713   2.686
    0MOL    O    710   1.525   0.707   2.893
    0MOL    O    711   1.418   0.494   3.867
    0MOL    O    712   1.612   0.654   3.942
    0MOL    O    713   1.818   0.494   3.916
    0MOL    O    714   1.847   0.724   2.724
    0MOL    O    715   1.773   0.665   2.969
    0MOL    O    716   1.584   0.494   3.034
    0MOL    Si   717   1.162   1.127   3.036
    0MOL    Si   718   1.354   1.053   2.825
    0MOL    Si   719   1.448   1.093   3.856
    0MOL    Si   720   1.759   1.088   3.879
    0MOL    Si   721   1.864   1.058   2.861
    0MOL    Si   722   1.600   1.123   2.997
    0MOL    Si   723   1.166   0.646   3.048
    0MOL    Si   724   1.376   0.743   2.844
    0MOL    Si   725   1.460   0.647   3.890
    0MOL    Si   726   1.771   0.647   3.919
    0MOL    Si   727   1.877   0.749   2.880
    0MOL    Si   728   1.618   0.649   3.011
    0MOL    O    729   1.002   1.836   3.020
    0MOL    O    730   1.231   1.827   2.890
    0MOL    O    731   1.206   1.704   3.121
    0MOL    O    732   1.211   1.967   3.111
    0MOL    O    733   1.348   1.898   2.665
    0MOL    O    734   1.347   0.088   2.871
    0MOL    O    735   1.493   1.843   2.877
    0MOL    O    736   1.424   1.718   3.803
    0MOL    O    737   1.600   1.884   3.906
    0MOL    O    738   1.419   1.972   3.737
    0MOL    O    739   1.793   1.724   3.827
    0MOL    O    740   1.839   1.901   2.702
    0MOL    O    741   1.748   1.820   2.935
    0MOL    O    742   1.863   0.081   2.913
    0MOL    O    743   1.567   1.715   3.094
    0MOL    O    744   1.022   0.287   3.000
    0MOL    O    745   1.269   0.333   2.925
    0MOL    O    746   1.363   0.274   2.686
    0MOL    O    747   1.525   0.280   2.893
    0MOL    O    748   1.612   0.333   3.942
    0MOL    O    749   1.847   0.263   2.724
    0MOL    O    750   1.773   0.322   2.969
    0MOL    Si   751   1.162   1.833   3.036
    0MOL    Si   752   1.354   1.908   2.825
    0MOL    Si   753   1.448   1.868   3.856
    0MOL    Si   754   1.759   1.872   3.879
    0MOL    Si   755   1.864   1.903   2.861
    0MOL    Si   756   1.600   1.838   2.997
    0MOL    Si   757   1.166   0.341   3.048
    0MOL    Si   758   1.376   0.244   2.844
    0MOL    Si   759   1.460   0.340   3.890
    0MOL    Si   760   1.771   0.340   3.919
    0MOL    Si   761   1.877   0.238   2.880
    0MOL    Si   762   1.618   0.338   3.011
    0MOL    O    763   0.002   0.138   3.677
    0MOL    O    764   1.783   0.147   3.547
    0MOL    O    765   1.807   0.270   3.778
    0MOL    O    766   1.802   0.007   3.768
    0MOL    O    767   1.666   0.076   3.322
    0MOL    O    768   1.667   1.886   3.528
    0MOL    O    769   1.521   0.131   3.534
    0MOL    O    770   1.589   0.256   3.146
    0MOL    O    771   1.413   0.090   3.249
    0MOL    O    772   1.594   0.002   3.080
    0MOL    O    773   1.221   0.250   3.170
    0MOL    O    774   1.175   0.073   3.359
    0MOL    O    775   1.266   0.154   3.592
    0MOL    O    776   1.151   1.893   3.570
    0MOL    O    777   1.447   0.259   3.751
    0MOL    O    778   1.991   1.687   3.658
    0MOL    O    779   1.744   1.640   3.582
    0MOL    O    780   1.651   1.700   3.343
    0MOL    O    781   1.489   1.694   3.550
    0MOL    O    782   1.402   1.641   3.285
    0MOL    O    783   1.167   1.711   3.381
    0MOL    O    784   1.241   1.652   3.626
    0MOL    Si   785   1.851   0.140   3.693
    0MOL    Si   786   1.659   0.066   3.483
    0MOL    Si   787   1.565   0.106   3.199
    0MOL    Si   788   1.255   0.102   3.222
    0MOL    Si   789   1.149   0.071   3.518
    0MOL    Si   790   1.413   0.136   3.654
    0MOL    Si   791   1.847   1.633   3.705
    0MOL    Si   792   1.638   1.730   3.501
    0MOL    Si   793   1.554   1.634   3.233
    0MOL    Si   794   1.243   1.634   3.262
    0MOL    Si   795   1.136   1.736   3.537
    0MOL    Si   796   1.396   1.636   3.668
    0MOL    O    797   2.007   1.125   2.894
    0MOL    O    798   0.226   1.134   3.024
    0MOL    O    799   0.202   1.256   2.793
    0MOL    O    800   0.207   0.994   2.803
    0MOL    O    801   0.343   1.063   3.249
    0MOL    O    802   0.342   0.899   3.043
    0MOL    O    803   0.488   1.118   3.037
    0MOL    O    804   0.420   1.243   3.425
    0MOL    O    805   0.596   1.077   3.322
    0MOL    O    806   0.415   0.989   3.491
    0MOL    O    807   0.789   1.237   3.401
    0MOL    O    808   0.835   1.060   3.212
    0MOL    O    809   0.743   1.141   2.979
    0MOL    O    810   0.858   0.906   3.001
    0MOL    O    811   0.562   1.246   2.820
    0MOL    O    812   0.018   0.700   2.913
    0MOL    O    813   0.265   0.653   2.989
    0MOL    O    814   0.358   0.713   3.228
    0MOL    O    815   0.520   0.707   3.021
    0MOL    O    816   0.607   0.654   3.286
    0MOL    O    817   0.842   0.724   3.190
    0MOL    O    818   0.768   0.665   2.945
    0MOL    Si   819   0.158   1.127   2.878
    0MOL    Si   820   0.350   1.053   3.088
    0MOL    Si   821   0.444   1.093   3.372
    0MOL    Si   822   0.754   1.088   3.349
    0MOL    Si   823   0.860   1.058   3.053
    0MOL    Si   824   0.596   1.123   2.917
    0MOL    Si   825   0.162   0.646   2.866
    0MOL    Si   826   0.371   0.743   3.070
    0MOL    Si   827   0.455   0.647   3.338
    0MOL    Si   828   0.766   0.647   3.310
    0MOL    Si   829   0.873   0.749   3.034
    0MOL    Si   830   0.613   0.649   2.903
    0MOL    O    831   1.007   0.849   3.551
    0MOL    O    832   0.778   0.840   3.681
    0MOL    O    833   0.803   0.717   3.450
    0MOL    O    834   0.798   0.980   3.460
    0MOL    O    835   0.661   0.911   3.906
    0MOL    O    836   0.662   1.075   3.700
    0MOL    O    837   0.517   0.856   3.694
    0MOL    O    838   0.585   0.731   2.768
    0MOL    O    839   0.409   0.897   2.665
    0MOL    O    840   0.590   0.985   2.834
    0MOL    O    841   0.216   0.737   2.744
    0MOL    O    842   0.170   0.914   3.869
    0MOL    O    843   0.261   0.833   3.636
    0MOL    O    844   0.146   1.068   3.658
    0MOL    O    845   0.442   0.728   3.477
    0MOL    O    846   0.987   1.273   3.571
    0MOL    O    847   0.740   1.320   3.646
    0MOL    O    848   0.646   1.261   3.885
    0MOL    O    849   0.484   1.267   3.678
    0MOL    O    850   0.397   1.320   2.629
    0MOL    O    851   0.163   1.249   3.847
    0MOL    O    852   0.237   1.309   3.602
    0MOL    Si   853   0.847   0.847   3.535
    0MOL    Si   854   0.655   0.921   3.746
    0MOL    Si   855   0.561   0.881   2.715
    0MOL    Si   856   0.250   0.885   2.692
    0MOL    Si   857   0.145   0.916   3.710
    0MOL    Si   858   0.409   0.851   3.574
    0MOL    Si   859   0.843   1.328   3.523
    0MOL    Si   860   0.633   1.231   3.727
    0MOL    Si   861   0.549   1.327   2.681
    0MOL    Si   862   0.238   1.327   2.652
    0MOL    Si   863   0.132   1.225   3.691
    0MOL    Si   864   0.391   1.325   3.560
    0MOL    O    865   1.007   0.138   4.865
    0MOL    O    866   0.778   0.147   4.995
    0MOL    O    867   0.803   0.270   4.764
    0MOL    O    868   0.798   0.007   4.774
    0MOL    O    869   0.661   0.076   5.220
    0MOL    O    870   0.662   1.886   5.014
    0MOL    O    871   0.517   0.131   5.008
    0MOL    O    872   0.585   0.256   4.082
    0MOL    O    873   0.409   0.090   3.979
    0MOL    O    874   0.590   0.002   4.148
    0MOL    O    875   0.216   0.250   4.059
    0MOL    O    876   0.170   0.073   5.184
    0MOL    O    877   0.261   0.154   4.951
    0MOL    O    878   0.146   1.893   4.972
    0MOL    O    879   0.442   0.259   4.791
    0MOL    O    880   0.987   1.687   4.885
    0MOL    O    881   0.740   1.640   4.960
    0MOL    O    882   0.856   1.480   4.788
    0MOL    O    883   0.646   1.700   5.199
    0MOL    O    884   0.484   1.694   4.993
    0MOL    O    885   0.591   1.480   4.019
    0MOL    O    886   0.397   1.641   3.943
    0MOL    O    887   0.190   1.480   3.970
    0MOL    O    888   0.163   1.711   5.162
    0MOL    O    889   0.237   1.652   4.916
    0MOL    O    890   0.425   1.480   4.851
    0MOL    Si   891   0.847   0.140   4.849
    0MOL    Si   892   0.655   0.066   5.060
    0MOL    Si   893   0.561   0.106   4.029
    0MOL    Si   894   0.250   0.102   4.006
    0MOL    Si   895   0.145   0.071   5.025
    0MOL    Si   896   0.409   0.136   4.888
    0MOL    Si   897   0.843   1.633   4.837
    0MOL    Si   898   0.633   1.730   5.041
    0MOL    Si   899   0.549   1.634   3.995
    0MOL    Si   900   0.238   1.634   3.967
    0MOL    Si   901   0.132   1.736   5.005
    0MOL    Si   902   0.391   1.636   4.875
    0MOL    O    903   2.007   1.836   4.208
    0MOL    O    904   0.226   1.827   4.338
    0MOL    O    905   0.202   1.704   4.107
    0MOL    O    906   0.207   1.967   4.117
    0MOL    O    907   0.343   1.898   4.563
    0MOL    O    908   0.342   0.088   4.357
    0MOL    O    909   0.488   1.843   4.351
    0MOL    O    910   0.420   1.718   4.739
    0MOL    O    911   0.596   1.884   4.636
    0MOL    O    912   0.415   1.972   4.805
    0MOL    O    913   0.789   1.724   4.716
    0MOL    O    914   0.835   1.901   4.527
    0MOL    O    915   0.743   1.820   4.294
    0MOL    O    916   0.858   0.081   4.315
    0MOL    O    917   0.562   1.715   4.134
    0MOL    O    918   0.018   0.287   4.228
    0MOL    O    919   0.265   0.333   4.303
    0MOL    O    920   0.148   0.494   4.131
    0MOL    O    921   0.358   0.274   4.542
    0MOL    O    922   0.520   0.280   4.336
    0MOL    O    923   0.413   0.494   4.676
    0MOL    O    924   0.607   0.333   4.600
    0MOL    O    925   0.814   0.494   4.627
    0MOL    O    926   0.842   0.263   4.504
    0MOL    O    927   0.768   0.322   4.259
    0MOL    O    928   0.579   0.494   4.194
    0MOL    Si   929   0.158   1.833   4.192
    0MOL    Si   930   0.350   1.908   4.403
    0MOL    Si   931   0.444   1.868   4.686
    0MOL    Si   932   0.754   1.872   4.663
    0MOL    Si   933   0.860   1.903   4.367
    0MOL    Si   934   0.596   1.838   4.231
    0MOL    Si   935   0.162   0.341   4.180
    0MOL    Si   936   0.371   0.244   4.384
    0MOL    Si   937   0.455   0.340   4.653
    0MOL    Si   938   0.766   0.340   4.624
    0MOL    Si   939   0.873   0.238   4.348
    0MOL    Si   940   0.613   0.338   4.217
    0MOL    O    941   0.002   0.849   4.992
    0MOL    O    942   1.783   0.840   4.862
    0MOL    O    943   1.807   0.717   5.092
    0MOL    O    944   1.802   0.980   5.083
    0MOL    O    945   1.666   0.911   4.636
    0MOL    O    946   1.667   1.075   4.842
    0MOL    O    947   1.521   0.856   4.849
    0MOL    O    948   1.589   0.731   4.460
    0MOL    O    949   1.413   0.897   4.564
    0MOL    O    950   1.594   0.985   4.394
    0MOL    O    951   1.221   0.737   4.484
    0MOL    O    952   1.175   0.914   4.673
    0MOL    O    953   1.266   0.833   4.906
    0MOL    O    954   1.151   1.068   4.885
    0MOL    O    955   1.447   0.728   5.065
    0MOL    O    956   1.991   1.273   4.972
    0MOL    O    957   1.744   1.320   4.896
    0MOL    O    958   1.861   1.480   5.069
    0MOL    O    959   1.651   1.261   4.657
    0MOL    O    960   1.489   1.267   4.864
    0MOL    O    961   1.596   1.480   4.524
    0MOL    O    962   1.402   1.320   4.599
    0MOL    O    963   1.195   1.480   4.573
    0MOL    O    964   1.167   1.249   4.695
    0MOL    O    965   1.241   1.309   4.941
    0MOL    O    966   1.430   1.480   5.005
    0MOL    Si   967   1.851   0.847   5.007
    0MOL    Si   968   1.659   0.921   4.797
    0MOL    Si   969   1.565   0.881   4.514
    0MOL    Si   970   1.255   0.885   4.537
    0MOL    Si   971   1.149   0.916   4.832
    0MOL    Si   972   1.413   0.851   4.968
    0MOL    Si   973   1.847   1.328   5.020
    0MOL    Si   974   1.638   1.231   4.815
    0MOL    Si   975   1.554   1.327   4.547
    0MOL    Si   976   1.243   1.327   4.576
    0MOL    Si   977   1.136   1.225   4.851
    0MOL    Si   978   1.396   1.325   4.982
    0MOL    O    979   1.002   1.125   4.335
    0MOL    O    980   1.231   1.134   4.204
    0MOL    O    981   1.206   1.256   4.435
    0MOL    O    982   1.211   0.994   4.425
    0MOL    O    983   1.348   1.063   3.979
    0MOL    O    984   1.347   0.899   4.185
    0MOL    O    985   1.493   1.118   4.192
    0MOL    O    986   1.424   1.243   5.117
    0MOL    O    987   1.600   1.077   5.221
    0MOL    O    988   1.419   0.989   5.051
    0MOL    O    989   1.793   1.237   5.141
    0MOL    O    990   1.839   1.060   4.016
    0MOL    O    991   1.748   1.141   4.249
    0MOL    O    992   1.863   0.906   4.228
    0MOL    O    993   1.567   1.246   4.408
    0MOL    O    994   1.022   0.700   4.315
    0MOL    O    995   1.269   0.653   4.239
    0MOL    O    996   1.153   0.494   4.412
    0MOL    O    997   1.363   0.713   4.000
    0MOL    O    998   1.525   0.707   4.207
    0MOL    O    999   1.418   0.494   5.181
    0MOL    O   1000   1.612   0.654   5.256
    0MOL    O   1001   1.818   0.494   5.230
    0MOL    O   1002   1.847   0.724   4.038
    0MOL    O   1003   1.773   0.665   4.283
    0MOL    O   1004   1.584   0.494   4.348
    0MOL    Si  1005   1.162   1.127   4.350
    0MOL    Si  1006   1.354   1.053   4.140
    0MOL    Si  1007   1.448   1.093   5.171
    0MOL    Si  1008   1.759   1.088   5.194
    0MOL    Si  1009   1.864   1.058   4.175
    0MOL    Si  1010   1.600   1.123   4.311
    0MOL    Si  1011   1.166   0.646   4.363
    0MOL    Si  1012   1.376   0.743   4.158
    0MOL    Si  1013   1.460   0.647   5.204
    0MOL    Si  1014   1.771   0.647   5.233
    0MOL    Si  1015   1.877   0.749   4.194
    0MOL    Si  1016   1.618   0.649   4.325
    0MOL    O   1017   1.002   1.836   4.335
    0MOL    O   1018   1.231   1.827   4.204
    0MOL    O   1019   1.206   1.704   4.435
    0MOL    O   1020   1.211   1.967   4.425
    0MOL    O   1021   1.348   1.898   3.979
    0MOL    O   1022   1.347   0.088   4.185
    0MOL    O   1023   1.493   1.843   4.192
    0MOL    O   1024   1.424   1.718   5.117
    0MOL    O   1025   1.600   1.884   5.221
    0MOL    O   1026   1.419   1.972   5.051
    0MOL    O   1027   1.793   1.724   5.141
    0MOL    O   1028   1.839   1.901   4.016
    0MOL    O   1029   1.748   1.820   4.249
    0MOL    O   1030   1.863   0.081   4.228
    0MOL    O   1031   1.567   1.715   4.408
    0MOL    O   1032   1.022   0.287   4.315
    0MOL    O   1033   1.269   0.333   4.239
    0MOL    O   1034   1.363   0.274   4.000
    0MOL    O   1035   1.525   0.280   4.207
    0MOL    O   1036   1.612   0.333   5.256
    0MOL    O   1037   1.847   0.263   4.038
    0MOL    O   1038   1.773   0.322   4.283
    0MOL    Si  1039   1.162   1.833   4.350
    0MOL    Si  1040   1.354   1.908   4.140
    0MOL    Si  1041   1.448   1.868   5.171
    0MOL    Si  1042   1.759   1.872   5.194
    0MOL    Si  1043   1.864   1.903   4.175
    0MOL    Si  1044   1.600   1.838   4.311
    0MOL    Si  1045   1.166   0.341   4.363
    0MOL    Si  1046   1.376   0.244   4.158
    0MOL    Si  1047   1.460   0.340   5.204
    0MOL    Si  1048   1.771   0.340   5.233
    0MOL    Si  1049   1.877   0.238   4.194
    0MOL    Si  1050   1.618   0.338   4.325
    0MOL    O   1051   0.002   0.138   4.992
    0MOL    O   1052   1.783   0.147   4.862
    0MOL    O   1053   1.807   0.270   5.092
    0MOL    O   1054   1.802   0.007   5.083
    0MOL    O   1055   1.666   0.076   4.636
    0MOL    O   1056   1.667   1.886   4.842
    0MOL    O   1057   1.521   0.131   4.849
    0MOL    O   1058   1.589   0.256   4.460
    0MOL    O   1059   1.413   0.090   4.564
    0MOL    O   1060   1.594   0.002   4.394
    0MOL    O   1061   1.221   0.250   4.484
    0MOL    O   1062   1.175   0.073   4.673
    0MOL    O   1063   1.266   0.154   4.906
    0MOL    O   1064   1.151   1.893   4.885
    0MOL    O   1065   1.447   0.259   5.065
    0MOL    O   1066   1.991   1.687   4.972
    0MOL    O   1067   1.744   1.640   4.896
    0MOL    O   1068   1.651   1.700   4.657
    0MOL    O   1069   1.489   1.694   4.864
    0MOL    O   1070   1.402   1.641   4.599
    0MOL    O   1071   1.167   1.711   4.695
    0MOL    O   1072   1.241   1.652   4.941
    0MOL    Si  1073   1.851   0.140   5.007
    0MOL    Si  1074   1.659   0.066   4.797
    0MOL    Si  1075   1.565   0.106   4.514
    0MOL    Si  1076   1.255   0.102   4.537
    0MOL    Si  1077   1.149   0.071   4.832
    0MOL    Si  1078   1.413   0.136   4.968
    0MOL    Si  1079   1.847   1.633   5.020
    0MOL    Si  1080   1.638   1.730   4.815
    0MOL    Si  1081   1.554   1.634   4.547
    0MOL    Si  1082   1.243   1.634   4.576
    0MOL    Si  1083   1.136   1.736   4.851
    0MOL    Si  1084   1.396   1.636   4.982
    0MOL    O   1085   2.007   1.125   4.208
    0MOL    O   1086   0.226   1.134   4.338
    0MOL    O   1087   0.202   1.256   4.107
    0MOL    O   1088   0.207   0.994   4.117
    0MOL    O   1089   0.343   1.063   4.563
    0MOL    O   1090   0.342   0.899   4.357
    0MOL    O   1091   0.488   1.118   4.351
    0MOL    O   1092   0.420   1.243   4.739
    0MOL    O   1093   0.596   1.077   4.636
    0MOL    O   1094   0.415   0.989   4.805
    0MOL    O   1095   0.789   1.237   4.716
    0MOL    O   1096   0.835   1.060   4.527
    0MOL    O   1097   0.743   1.141   4.294
    0MOL    O   1098   0.858   0.906   4.315
    0MOL    O   1099   0.562   1.246   4.134
    0MOL    O   1100   0.018   0.700   4.228
    0MOL    O   1101   0.265   0.653   4.303
    0MOL    O   1102   0.358   0.713   4.542
    0MOL    O   1103   0.520   0.707   4.336
    0MOL    O   1104   0.607   0.654   4.600
    0MOL    O   1105   0.842   0.724   4.504
    0MOL    O   1106   0.768   0.665   4.259
    0MOL    Si  1107   0.158   1.127   4.192
    0MOL    Si  1108   0.350   1.053   4.403
    0MOL    Si  1109   0.444   1.093   4.686
    0MOL    Si  1110   0.754   1.088   4.663
    0MOL    Si  1111   0.860   1.058   4.367
    0MOL    Si  1112   0.596   1.123   4.231
    0MOL    Si  1113   0.162   0.646   4.180
    0MOL    Si  1114   0.371   0.743   4.384
    0MOL    Si  1115   0.455   0.647   4.653
    0MOL    Si  1116   0.766   0.647   4.624
    0MOL    Si  1117   0.873   0.749   4.348
    0MOL    Si  1118   0.613   0.649   4.217
    0MOL    O   1119   1.007   0.849   4.865
    0MOL    O   1120   0.778   0.840   4.995
    0MOL    O   1121   0.803   0.717   4.764
    0MOL    O   1122   0.798   0.980   4.774
    0MOL    O   1123   0.661   0.911   5.220
    0MOL    O   1124   0.662   1.075   5.014
    0MOL    O   1125   0.517   0.856   5.008
    0MOL    O   1126   0.585   0.731   4.082
    0MOL    O   1127   0.409   0.897   3.979
    0MOL    O   1128   0.590   0.985   4.148
    0MOL    O   1129   0.216   0.737   4.059
    0MOL    O   1130   0.170   0.914   5.184
    0MOL    O   1131   0.261   0.833   4.951
    0MOL    O   1132   0.146   1.068   4.972
    0MOL    O   1133   0.442   0.728   4.791
    0MOL    O   1134   0.987   1.273   4.885
    0MOL    O   1135   0.740   1.320   4.960
    0MOL    O   1136   0.646   1.261   5.199
    0MOL    O   1137   0.484   1.267   4.993
    0MOL    O   1138   0.397   1.320   3.943
    0MOL    O   1139   0.163   1.249   5.162
    0MOL    O   1140   0.237   1.309   4.916
    0MOL    Si  1141   0.847   0.847   4.849
    0MOL    Si  1142   0.655   0.921   5.060
    0MOL    Si  1143   0.561   0.881   4.029
    0MOL    Si  1144   0.250   0.885   4.006
    0MOL    Si  1145   0.145   0.916   5.025
    0MOL    Si  1146   0.409   0.851   4.888
    0MOL    Si  1147   0.843   1.328   4.837
    0MOL    Si  1148   0.633   1.231   5.041
    0MOL    Si  1149   0.549   1.327   3.995
    0MOL    Si  1150   0.238   1.327   3.967
    0MOL    Si  1151   0.132   1.225   5.005
    0MOL    Si  1152   0.391   1.325   4.875
    0MOL    O   1153   1.007   2.112   0.922
    0MOL    O   1154   0.778   2.121   1.052
    0MOL    O   1155   0.803   2.243   0.822
    0MOL    O   1156   0.798   1.981   0.831
    0MOL    O   1157   0.661   2.050   1.278
    0MOL    O   1158   0.662   3.860   1.072
    0MOL    O   1159   0.517   2.105   1.065
    0MOL    O   1160   0.585   2.230   0.139
    0MOL    O   1161   0.409   2.064   0.036
    0MOL    O   1162   0.590   1.976   0.206
    0MOL    O   1163   0.216   2.224   0.116
    0MOL    O   1164   0.170   2.047   1.241
    0MOL    O   1165   0.261   2.128   1.008
    0MOL    O   1166   0.146   3.867   1.029
    0MOL    O   1167   0.442   2.233   0.848
    0MOL    O   1168   0.987   3.661   0.942
    0MOL    O   1169   0.740   3.614   1.018
    0MOL    O   1170   0.856   3.454   0.845
    0MOL    O   1171   0.646   3.673   1.256
    0MOL    O   1172   0.484   3.668   1.050
    0MOL    O   1173   0.591   3.454   0.076
    0MOL    O   1174   0.397   3.615   0.000
    0MOL    O   1175   0.190   3.454   0.027
    0MOL    O   1176   0.163   3.685   1.219
    0MOL    O   1177   0.237   3.626   0.973
    0MOL    O   1178   0.425   3.454   0.909
    0MOL    Si  1179   0.847   2.114   0.906
    0MOL    Si  1180   0.655   2.040   1.117
    0MOL    Si  1181   0.561   2.080   0.086
    0MOL    Si  1182   0.250   2.075   0.063
    0MOL    Si  1183   0.145   2.045   1.082
    0MOL    Si  1184   0.409   2.109   0.946
    0MOL    Si  1185   0.843   3.607   0.894
    0MOL    Si  1186   0.633   3.704   1.099
    0MOL    Si  1187   0.549   3.608   0.053
    0MOL    Si  1188   0.238   3.608   0.024
    0MOL    Si  1189   0.132   3.710   1.063
    0MOL    Si  1190   0.391   3.610   0.932
    0MOL    O   1191   2.007   3.810   0.265
    0MOL    O   1192   0.226   3.801   0.395
    0MOL    O   1193   0.202   3.678   0.164
    0MOL    O   1194   0.207   3.941   0.174
    0MOL    O   1195   0.343   3.872   0.621
    0MOL    O   1196   0.342   2.062   0.415
    0MOL    O   1197   0.488   3.817   0.408
    0MOL    O   1198   0.420   3.692   0.796
    0MOL    O   1199   0.596   3.858   0.693
    0MOL    O   1200   0.415   3.946   0.863
    0MOL    O   1201   0.789   3.698   0.773
    0MOL    O   1202   0.835   3.875   0.584
    0MOL    O   1203   0.743   3.793   0.351
    0MOL    O   1204   0.858   2.055   0.372
    0MOL    O   1205   0.562   3.688   0.191
    0MOL    O   1206   0.018   2.260   0.285
    0MOL    O   1207   0.265   2.307   0.361
    0MOL    O   1208   0.148   2.467   0.188
    0MOL    O   1209   0.358   2.248   0.599
    0MOL    O   1210   0.520   2.254   0.393
    0MOL    O   1211   0.413   2.467   0.733
    0MOL    O   1212   0.607   2.307   0.657
    0MOL    O   1213   0.814   2.467   0.684
    0MOL    O   1214   0.842   2.236   0.562
    0MOL    O   1215   0.768   2.296   0.316
    0MOL    O   1216   0.579   2.467   0.251
    0MOL    Si  1217   0.158   3.807   0.249
    0MOL    Si  1218   0.350   3.881   0.460
    0MOL    Si  1219   0.444   3.842   0.743
    0MOL    Si  1220   0.754   3.846   0.720
    0MOL    Si  1221   0.860   3.876   0.425
    0MOL    Si  1222   0.596   3.812   0.289
    0MOL    Si  1223   0.162   2.315   0.237
    0MOL    Si  1224   0.371   2.218   0.442
    0MOL    Si  1225   0.455   2.314   0.710
    0MOL    Si  1226   0.766   2.314   0.681
    0MOL    Si  1227   0.873   2.212   0.406
    0MOL    Si  1228   0.613   2.312   0.275
    0MOL    O   1229   0.002   2.823   1.049
    0MOL    O   1230   1.783   2.814   0.919
    0MOL    O   1231   1.807   2.691   1.150
    0MOL    O   1232   1.802   2.954   1.140
    0MOL    O   1233   1.666   2.885   0.694
    0MOL    O   1234   1.667   3.049   0.900
    0MOL    O   1235   1.521   2.830   0.906
    0MOL    O   1236   1.589   2.705   0.518
    0MOL    O   1237   1.413   2.871   0.621
    0MOL    O   1238   1.594   2.959   0.452
    0MOL    O   1239   1.221   2.711   0.541
    0MOL    O   1240   1.175   2.888   0.730
    0MOL    O   1241   1.266   2.807   0.963
    0MOL    O   1242   1.151   3.042   0.942
    0MOL    O   1243   1.447   2.701   1.123
    0MOL    O   1244   1.991   3.247   1.029
    0MOL    O   1245   1.744   3.294   0.954
    0MOL    O   1246   1.861   3.454   1.126
    0MOL    O   1247   1.651   3.235   0.715
    0MOL    O   1248   1.489   3.241   0.921
    0MOL    O   1249   1.596   3.454   0.581
    0MOL    O   1250   1.402   3.294   0.657
    0MOL    O   1251   1.195   3.454   0.630
    0MOL    O   1252   1.167   3.223   0.752
    0MOL    O   1253   1.241   3.282   0.998
    0MOL    O   1254   1.430   3.454   1.063
    0MOL    Si  1255   1.851   2.820   1.065
    0MOL    Si  1256   1.659   2.894   0.854
    0MOL    Si  1257   1.565   2.855   0.571
    0MOL    Si  1258   1.255   2.859   0.594
    0MOL    Si  1259   1.149   2.890   0.889
    0MOL    Si  1260   1.413   2.825   1.026
    0MOL    Si  1261   1.847   3.301   1.077
    0MOL    Si  1262   1.638   3.204   0.873
    0MOL    Si  1263   1.554   3.301   0.604
    0MOL    Si  1264   1.243   3.300   0.633
    0MOL    Si  1265   1.136   3.199   0.909
    0MOL    Si  1266   1.396   3.299   1.039
    0MOL    O   1267   1.002   3.099   0.392
    0MOL    O   1268   1.231   3.107   0.262
    0MOL    O   1269   1.206   3.230   0.493
    0MOL    O   1270   1.211   2.967   0.483
    0MOL    O   1271   1.348   3.037   0.037
    0MOL    O   1272   1.347   2.873   0.242
    0MOL    O   1273   1.493   3.092   0.249
    0MOL    O   1274   1.424   3.217   1.175
    0MOL    O   1275   1.600   3.050   1.278
    0MOL    O   1276   1.419   2.963   1.109
    0MOL    O   1277   1.793   3.210   1.198
    0MOL    O   1278   1.839   3.034   0.073
    0MOL    O   1279   1.748   3.115   0.306
    0MOL    O   1280   1.863   2.880   0.285
    0MOL    O   1281   1.567   3.220   0.466
    0MOL    O   1282   1.022   2.674   0.372
    0MOL    O   1283   1.269   2.627   0.297
    0MOL    O   1284   1.153   2.467   0.469
    0MOL    O   1285   1.363   2.687   0.058
    0MOL    O   1286   1.525   2.681   0.264
    0MOL    O   1287   1.418   2.467   1.238
    0MOL    O   1288   1.612   2.628   1.314
    0MOL    O   1289   1.818   2.467   1.287
    0MOL    O   1290   1.847   2.698   0.095
    0MOL    O   1291   1.773   2.639   0.341
    0MOL    O   1292   1.584   2.467   0.406
    0MOL    Si  1293   1.162   3.101   0.408
    0MOL    Si  1294   1.354   3.027   0.197
    0MOL    Si  1295   1.448   3.067   1.228
    0MOL    Si  1296   1.759   3.062   1.251
    0MOL    Si  1297   1.864   3.032   0.232
    0MOL    Si  1298   1.600   3.096   0.368
    0MOL    Si  1299   1.166   2.620   0.420
    0MOL    Si  1300   1.376   2.717   0.215
    0MOL    Si  1301   1.460   2.621   1.261
    0MOL    Si  1302   1.771   2.621   1.290
    0MOL    Si  1303   1.877   2.723   0.251
    0MOL    Si  1304   1.618   2.623   0.382
    0MOL    O   1305   1.002   3.810   0.392
    0MOL    O   1306   1.231   3.801   0.262
    0MOL    O   1307   1.206   3.678   0.493
    0MOL    O   1308   1.211   3.941   0.483
    0MOL    O   1309   1.348   3.872   0.037
    0MOL    O   1310   1.347   2.062   0.242
    0MOL    O   1311   1.493   3.817   0.249
    0MOL    O   1312   1.424   3.692   1.175
    0MOL    O   1313   1.600   3.858   1.278
    0MOL    O   1314   1.419   3.946   1.109
    0MOL    O   1315   1.793   3.698   1.198
    0MOL    O   1316   1.839   3.875   0.073
    0MOL    O   1317   1.748   3.793   0.306
    0MOL    O   1318   1.863   2.055   0.285
    0MOL    O   1319   1.567   3.688   0.466
    0MOL    O   1320   1.022   2.260   0.372
    0MOL    O   1321   1.269   2.307   0.297
    0MOL    O   1322   1.363   2.248   0.058
    0MOL    O   1323   1.525   2.254   0.264
    0MOL    O   1324   1.612   2.307   1.314
    0MOL    O   1325   1.847   2.236   0.095
    0MOL    O   1326   1.773   2.296   0.341
    0MOL    Si  1327   1.162   3.807   0.408
    0MOL    Si  1328   1.354   3.881   0.197
    0MOL    Si  1329   1.448   3.842   1.228
    0MOL    Si  1330   1.759   3.846   1.251
    0MOL    Si  1331   1.864   3.876   0.232
    0MOL    Si  1332   1.600   3.812   0.368
    0MOL    Si  1333   1.166   2.315   0.420
    0MOL    Si  1334   1.376   2.218   0.215
    0MOL    Si  1335   1.460   2.314   1.261
    0MOL    Si  1336   1.771   2.314   1.290
    0MOL    Si  1337   1.877   2.212   0.251
    0MOL    Si  1338   1.618   2.312   0.382
    0MOL    O   1339   0.002   2.112   1.049
    0MOL    O   1340   1.783   2.121   0.919
    0MOL    O   1341   1.807   2.243   1.150
    0MOL    O   1342   1.802   1.981   1.140
    0MOL    O   1343   1.666   2.050   0.694
    0MOL    O   1344   1.667   3.860   0.900
    0MOL    O   1345   1.521   2.105   0.906
    0MOL    O   1346   1.589   2.230   0.518
    0MOL    O   1347   1.413   2.064   0.621
    0MOL    O   1348   1.594   1.976   0.452
    0MOL    O   1349   1.221   2.224   0.541
    0MOL    O   1350   1.175   2.047   0.730
    0MOL    O   1351   1.266   2.128   0.963
    0MOL    O   1352   1.151   3.867   0.942
    0MOL    O   1353   1.447   2.233   1.123
    0MOL    O   1354   1.991   3.661   1.029
    0MOL    O   1355   1.744   3.614   0.954
    0MOL    O   1356   1.651   3.673   0.715
    0MOL    O   1357   1.489   3.668   0.921
    0MOL    O   1358   1.402   3.615   0.657
    0MOL    O   1359   1.167   3.685   0.752
    0MOL    O   1360   1.241   3.626   0.998
    0MOL    Si  1361   1.851   2.114   1.065
    0MOL    Si  1362   1.659   2.040   0.854
    0MOL    Si  1363   1.565   2.080   0.571
    0MOL    Si  1364   1.255   2.075   0.594
    0MOL    Si  1365   1.149   2.045   0.889
    0MOL    Si  1366   1.413   2.109   1.026
    0MOL    Si  1367   1.847   3.607   1.077
    0MOL    Si  1368   1.638   3.704   0.873
    0MOL    Si  1369   1.554   3.608   0.604
    0MOL    Si  1370   1.243   3.608   0.633
    0MOL    Si  1371   1.136   3.710   0.909
    0MOL    Si  1372   1.396   3.610   1.039
    0MOL    O   1373   2.007   3.099   0.265
    0MOL    O   1374   0.226   3.107   0.395
    0MOL    O   1375   0.202   3.230   0.164
    0MOL    O   1376   0.207   2.967   0.174
    0MOL    O   1377   0.343   3.037   0.621
    0MOL    O   1378   0.342   2.873   0.415
    0MOL    O   1379   0.488   3.092   0.408
    0MOL    O   1380   0.420   3.217   0.796
    0MOL    O   1381   0.596   3.050   0.693
    0MOL    O   1382   0.415   2.963   0.863
    0MOL    O   1383   0.789   3.210   0.773
    0MOL    O   1384   0.835   3.034   0.584
    0MOL    O   1385   0.743   3.115   0.351
    0MOL    O   1386   0.858   2.880   0.372
    0MOL    O   1387   0.562   3.220   0.191
    0MOL    O   1388   0.018   2.674   0.285
    0MOL    O   1389   0.265   2.627   0.361
    0MOL    O   1390   0.358   2.687   0.599
    0MOL    O   1391   0.520   2.681   0.393
    0MOL    O   1392   0.607   2.628   0.657
    0MOL    O   1393   0.842   2.698   0.562
    0MOL    O   1394   0.768   2.639   0.316
    0MOL    Si  1395   0.158   3.101   0.249
    0MOL    Si  1396   0.350   3.027   0.460
    0MOL    Si  1397   0.444   3.067   0.743
    0MOL    Si  1398   0.754   3.062   0.720
    0MOL    Si  1399   0.860   3.032   0.425
    0MOL    Si  1400   0.596   3.096   0.289
    0MOL    Si  1401   0.162   2.620   0.237
    0MOL    Si  1402   0.371   2.717   0.442
    0MOL    Si  1403   0.455   2.621   0.710
    0MOL    Si  1404   0.766   2.621   0.681
    0MOL    Si  1405   0.873   2.723   0.406
    0MOL    Si  1406   0.613   2.623   0.275
    0MOL    O   1407   1.007   2.823   0.922
    0MOL    O   1408   0.778   2.814   1.052
    0MOL    O   1409   0.803   2.691   0.822
    0MOL    O   1410   0.798   2.954   0.831
    0MOL    O   1411   0.661   2.885   1.278
    0MOL    O   1412   0.662   3.049   1.072
    0MOL    O   1413   0.517   2.830   1.065
    0MOL    O   1414   0.585   2.705   0.139
    0MOL    O   1415   0.409   2.871   0.036
    0MOL    O   1416   0.590   2.959   0.206
    0MOL    O   1417   0.216   2.711   0.116
    0MOL    O   1418   0.170   2.888   1.241
    0MOL    O   1419   0.261   2.807   1.008
    0MOL    O   1420   0.146   3.042   1.029
    0MOL    O   1421   0.442   2.701   0.848
    0MOL    O   1422   0.987   3.247   0.942
    0MOL    O   1423   0.740   3.294   1.018
    0MOL    O   1424   0.646   3.235   1.256
    0MOL    O   1425   0.484   3.241   1.050
    0MOL    O   1426   0.397   3.294   0.000
    0MOL    O   1427   0.163   3.223   1.219
    0MOL    O   1428   0.237   3.282   0.973
    0MOL    Si  1429   0.847   2.820   0.906
    0MOL    Si  1430   0.655   2.894   1.117
    0MOL    Si  1431   0.561   2.855   0.086
    0MOL    Si  1432   0.250   2.859   0.063
    0MOL    Si  1433   0.145   2.890   1.082
    0MOL    Si  1434   0.409   2.825   0.946
    0MOL    Si  1435   0.843   3.301   0.894
    0MOL    Si  1436   0.633   3.204   1.099
    0MOL    Si  1437   0.549   3.301   0.053
    0MOL    Si  1438   0.238   3.300   0.024
    0MOL    Si  1439   0.132   3.199   1.063
    0MOL    Si  1440   0.391   3.299   0.932
    0MOL    O   1441   1.007   2.112   2.237
    0MOL    O   1442   0.778   2.121   2.367
    0MOL    O   1443   0.803   2.243   2.136
    0MOL    O   1444   0.798   1.981   2.146
    0MOL    O   1445   0.661   2.050   2.592
    0MOL    O   1446   0.662   3.860   2.386
    0MOL    O   1447   0.517   2.105   2.380
    0MOL    O   1448   0.585   2.230   1.454
    0MOL    O   1449   0.409   2.064   1.350
    0MOL    O   1450   0.590   1.976   1.520
    0MOL    O   1451   0.216   2.224   1.430
    0MOL    O   1452   0.170   2.047   2.555
    0MOL    O   1453   0.261   2.128   2.322
    0MOL    O   1454   0.146   3.867   2.343
    0MOL    O   1455   0.442   2.233   2.163
    0MOL    O   1456   0.987   3.661   2.256
    0MOL    O   1457   0.740   3.614   2.332
    0MOL    O   1458   0.856   3.454   2.159
    0MOL    O   1459   0.646   3.673   2.571
    0MOL    O   1460   0.484   3.668   2.364
    0MOL    O   1461   0.591   3.454   1.390
    0MOL    O   1462   0.397   3.615   1.315
    0MOL    O   1463   0.190   3.454   1.341
    0MOL    O   1464   0.163   3.685   2.533
    0MOL    O   1465   0.237   3.626   2.288
    0MOL    O   1466   0.425   3.454   2.223
    0MOL    Si  1467   0.847   2.114   2.221
    0MOL    Si  1468   0.655   2.040   2.431
    0MOL    Si  1469   0.561   2.080   1.400
    0MOL    Si  1470   0.250   2.075   1.377
    0MOL    Si  1471   0.145   2.045   2.396
    0MOL    Si  1472   0.409   2.109   2.260
    0MOL    Si  1473   0.843   3.607   2.208
    0MOL    Si  1474   0.633   3.704   2.413
    0MOL    Si  1475   0.549   3.608   1.367
    0MOL    Si  1476   0.238   3.608   1.338
    0MOL    Si  1477   0.132   3.710   2.377
    0MOL    Si  1478   0.391   3.610   2.246
    0MOL    O   1479   2.007   3.810   1.579
    0MOL    O   1480   0.226   3.801   1.709
    0MOL    O   1481   0.202   3.678   1.479
    0MOL    O   1482   0.207   3.941   1.489
    0MOL    O   1483   0.343   3.872   1.935
    0MOL    O   1484   0.342   2.062   1.729
    0MOL    O   1485   0.488   3.817   1.722
    0MOL    O   1486   0.420   3.692   2.111
    0MOL    O   1487   0.596   3.858   2.007
    0MOL    O   1488   0.415   3.946   2.177
    0MOL    O   1489   0.789   3.698   2.087
    0MOL    O   1490   0.835   3.875   1.898
    0MOL    O   1491   0.743   3.793   1.665
    0MOL    O   1492   0.858   2.055   1.686
    0MOL    O   1493   0.562   3.688   1.506
    0MOL    O   1494   0.018   2.260   1.599
    0MOL    O   1495   0.265   2.307   1.675
    0MOL    O   1496   0.148   2.467   1.502
    0MOL    O   1497   0.358   2.248   1.914
    0MOL    O   1498   0.520   2.254   1.707
    0MOL    O   1499   0.413   2.467   2.047
    0MOL    O   1500   0.607   2.307   1.972
    0MOL    O   1501   0.814   2.467   1.998
    0MOL    O   1502   0.842   2.236   1.876
    0MOL    O   1503   0.768   2.296   1.630
    0MOL    O   1504   0.579   2.467   1.566
    0MOL    Si  1505   0.158   3.807   1.564
    0MOL    Si  1506   0.350   3.881   1.774
    0MOL    Si  1507   0.444   3.842   2.057
    0MOL    Si  1508   0.754   3.846   2.034
    0MOL    Si  1509   0.860   3.876   1.739
    0MOL    Si  1510   0.596   3.812   1.603
    0MOL    Si  1511   0.162   2.315   1.551
    0MOL    Si  1512   0.371   2.218   1.756
    0MOL    Si  1513   0.455   2.314   2.024
    0MOL    Si  1514   0.766   2.314   1.995
    0MOL    Si  1515   0.873   2.212   1.720
    0MOL    Si  1516   0.613   2.312   1.589
    0MOL    O   1517   0.002   2.823   2.363
    0MOL    O   1518   1.783   2.814   2.233
    0MOL    O   1519   1.807   2.691   2.464
    0MOL    O   1520   1.802   2.954   2.454
    0MOL    O   1521   1.666   2.885   2.008
    0MOL    O   1522   1.667   3.049   2.214
    0MOL    O   1523   1.521   2.830   2.220
    0MOL    O   1524   1.589   2.705   1.832
    0MOL    O   1525   1.413   2.871   1.935
    0MOL    O   1526   1.594   2.959   1.766
    0MOL    O   1527   1.221   2.711   1.855
    0MOL    O   1528   1.175   2.888   2.044
    0MOL    O   1529   1.266   2.807   2.277
    0MOL    O   1530   1.151   3.042   2.256
    0MOL    O   1531   1.447   2.701   2.437
    0MOL    O   1532   1.991   3.247   2.343
    0MOL    O   1533   1.744   3.294   2.268
    0MOL    O   1534   1.861   3.454   2.440
    0MOL    O   1535   1.651   3.235   2.029
    0MOL    O   1536   1.489   3.241   2.235
    0MOL    O   1537   1.596   3.454   1.895
    0MOL    O   1538   1.402   3.294   1.971
    0MOL    O   1539   1.195   3.454   1.944
    0MOL    O   1540   1.167   3.223   2.067
    0MOL    O   1541   1.241   3.282   2.312
    0MOL    O   1542   1.430   3.454   2.377
    0MOL    Si  1543   1.851   2.820   2.379
    0MOL    Si  1544   1.659   2.894   2.168
    0MOL    Si  1545   1.565   2.855   1.885
    0MOL    Si  1546   1.255   2.859   1.908
    0MOL    Si  1547   1.149   2.890   2.204
    0MOL    Si  1548   1.413   2.825   2.340
    0MOL    Si  1549   1.847   3.301   2.391
    0MOL    Si  1550   1.638   3.204   2.187
    0MOL    Si  1551   1.554   3.301   1.918
    0MOL    Si  1552   1.243   3.300   1.947
    0MOL    Si  1553   1.136   3.199   2.223
    0MOL    Si  1554   1.396   3.299   2.354
    0MOL    O   1555   1.002   3.099   1.706
    0MOL    O   1556   1.231   3.107   1.576
    0MOL    O   1557   1.206   3.230   1.807
    0MOL    O   1558   1.211   2.967   1.797
    0MOL    O   1559   1.348   3.037   1.351
    0MOL    O   1560   1.347   2.873   1.557
    0MOL    O   1561   1.493   3.092   1.563
    0MOL    O   1562   1.424   3.217   2.489
    0MOL    O   1563   1.600   3.050   2.592
    0MOL    O   1564   1.419   2.963   2.423
    0MOL    O   1565   1.793   3.210   2.512
    0MOL    O   1566   1.839   3.034   1.387
    0MOL    O   1567   1.748   3.115   1.620
    0MOL    O   1568   1.863   2.880   1.599
    0MOL    O   1569   1.567   3.220   1.780
    0MOL    O   1570   1.022   2.674   1.686
    0MOL    O   1571   1.269   2.627   1.611
    0MOL    O   1572   1.153   2.467   1.783
    0MOL    O   1573   1.363   2.687   1.372
    0MOL    O   1574   1.525   2.681   1.578
    0MOL    O   1575   1.418   2.467   2.552
    0MOL    O   1576   1.612   2.628   2.628
    0MOL    O   1577   1.818   2.467   2.601
    0MOL    O   1578   1.847   2.698   1.410
    0MOL    O   1579   1.773   2.639   1.655
    0MOL    O   1580   1.584   2.467   1.720
    0MOL    Si  1581   1.162   3.101   1.722
    0MOL    Si  1582   1.354   3.027   1.511
    0MOL    Si  1583   1.448   3.067   2.542
    0MOL    Si  1584   1.759   3.062   2.565
    0MOL    Si  1585   1.864   3.032   1.546
    0MOL    Si  1586   1.600   3.096   1.683
    0MOL    Si  1587   1.166   2.620   1.734
    0MOL    Si  1588   1.376   2.717   1.530
    0MOL    Si  1589   1.460   2.621   2.576
    0MOL    Si  1590   1.771   2.621   2.604
    0MOL    Si  1591   1.877   2.723   1.566
    0MOL    Si  1592   1.618   2.623   1.696
    0MOL    O   1593   1.002   3.810   1.706
    0MOL    O   1594   1.231   3.801   1.576
    0MOL    O   1595   1.206   3.678   1.807
    0MOL    O   1596   1.211   3.941   1.797
    0MOL    O   1597   1.348   3.872   1.351
    0MOL    O   1598   1.347   2.062   1.557
    0MOL    O   1599   1.493   3.817   1.563
    0MOL    O   1600   1.424   3.692   2.489
    0MOL    O   1601   1.600   3.858   2.592
    0MOL    O   1602   1.419   3.946   2.423
    0MOL    O   1603   1.793   3.698   2.512
    0MOL    O   1604   1.839   3.875   1.387
    0MOL    O   1605   1.748   3.793   1.620
    0MOL    O   1606   1.863   2.055   1.599
    0MOL    O   1607   1.567   3.688   1.780
    0MOL    O   1608   1.022   2.260   1.686
    0MOL    O   1609   1.269   2.307   1.611
    0MOL    O   1610   1.363   2.248   1.372
    0MOL    O   1611   1.525   2.254   1.578
    0MOL    O   1612   1.612   2.307   2.628
    0MOL    O   1613   1.847   2.236   1.410
    0MOL    O   1614   1.773   2.296   1.655
    0MOL    Si  1615   1.162   3.807   1.722
    0MOL    Si  1616   1.354   3.881   1.511
    0MOL    Si  1617   1.448   3.842   2.542
    0MOL    Si  1618   1.759   3.846   2.565
    0MOL    Si  1619   1.864   3.876   1.546
    0MOL    Si  1620   1.600   3.812   1.683
    0MOL    Si  1621   1.166   2.315   1.734
    0MOL    Si  1622   1.376   2.218   1.530
    0MOL    Si  1623   1.460   2.314   2.576
    0MOL    Si  1624   1.771   2.314   2.604
    0MOL    Si  1625   1.877   2.212   1.566
    0MOL    Si  1626   1.618   2.312   1.696
    0MOL    O   1627   0.002   2.112   2.363
    0MOL    O   1628   1.783   2.121   2.233
    0MOL    O   1629   1.807   2.243   2.464
    0MOL    O   1630   1.802   1.981   2.454
    0MOL    O   1631   1.666   2.050   2.008
    0MOL    O   1632   1.667   3.860   2.214
    0MOL    O   1633   1.521   2.105   2.220
    0MOL    O   1634   1.589   2.230   1.832
    0MOL    O   1635   1.413   2.064   1.935
    0MOL    O   1636   1.594   1.976   1.766
    0MOL    O   1637   1.221   2.224   1.855
    0MOL    O   1638   1.175   2.047   2.044
    0MOL    O   1639   1.266   2.128   2.277
    0MOL    O   1640   1.151   3.867   2.256
    0MOL    O   1641   1.447   2.233   2.437
    0MOL    O   1642   1.991   3.661   2.343
    0MOL    O   1643   1.744   3.614   2.268
    0MOL    O   1644   1.651   3.673   2.029
    0MOL    O   1645   1.489   3.668   2.235
    0MOL    O   1646   1.402   3.615   1.971
    0MOL    O   1647   1.167   3.685   2.067
    0MOL    O   1648   1.241   3.626   2.312
    0MOL    Si  1649   1.851   2.114   2.379
    0MOL    Si  1650   1.659   2.040   2.168
    0MOL    Si  1651   1.565   2.080   1.885
    0MOL    Si  1652   1.255   2.075   1.908
    0MOL    Si  1653   1.149   2.045   2.204
    0MOL    Si  1654   1.413   2.109   2.340
    0MOL    Si  1655   1.847   3.607   2.391
    0MOL    Si  1656   1.638   3.704   2.187
    0MOL    Si  1657   1.554   3.608   1.918
    0MOL    Si  1658   1.243   3.608   1.947
    0MOL    Si  1659   1.136   3.710   2.223
    0MOL    Si  1660   1.396   3.610   2.354
    0MOL    O   1661   2.007   3.099   1.579
    0MOL    O   1662   0.226   3.107   1.709
    0MOL    O   1663   0.202   3.230   1.479
    0MOL    O   1664   0.207   2.967   1.489
    0MOL    O   1665   0.343   3.037   1.935
    0MOL    O   1666   0.342   2.873   1.729
    0MOL    O   1667   0.488   3.092   1.722
    0MOL    O   1668   0.420   3.217   2.111
    0MOL    O   1669   0.596   3.050   2.007
    0MOL    O   1670   0.415   2.963   2.177
    0MOL    O   1671   0.789   3.210   2.087
    0MOL    O   1672   0.835   3.034   1.898
    0MOL    O   1673   0.743   3.115   1.665
    0MOL    O   1674   0.858   2.880   1.686
    0MOL    O   1675   0.562   3.220   1.506
    0MOL    O   1676   0.018   2.674   1.599
    0MOL    O   1677   0.265   2.627   1.675
    0MOL    O   1678   0.358   2.687   1.914
    0MOL    O   1679   0.520   2.681   1.707
    0MOL    O   1680   0.607   2.628   1.972
    0MOL    O   1681   0.842   2.698   1.876
    0MOL    O   1682   0.768   2.639   1.630
    0MOL    Si  1683   0.158   3.101   1.564
    0MOL    Si  1684   0.350   3.027   1.774
    0MOL    Si  1685   0.444   3.067   2.057
    0MOL    Si  1686   0.754   3.062   2.034
    0MOL    Si  1687   0.860   3.032   1.739
    0MOL    Si  1688   0.596   3.096   1.603
    0MOL    Si  1689   0.162   2.620   1.551
    0MOL    Si  1690   0.371   2.717   1.756
    0MOL    Si  1691   0.455   2.621   2.024
    0MOL    Si  1692   0.766   2.621   1.995
    0MOL    Si  1693   0.873   2.723   1.720
    0MOL    Si  1694   0.613   2.623   1.589
    0MOL    O   1695   1.007   2.823   2.237
    0MOL    O   1696   0.778   2.814   2.367
    0MOL    O   1697   0.803   2.691   2.136
    0MOL    O   1698   0.798   2.954   2.146
    0MOL    O   1699   0.661   2.885   2.592
    0MOL    O   1700   0.662   3.049   2.386
    0MOL    O   1701   0.517   2.830   2.380
    0MOL    O   1702   0.585   2.705   1.454
    0MOL    O   1703   0.409   2.871   1.350
    0MOL    O   1704   0.590   2.959   1.520
    0MOL    O   1705   0.216   2.711   1.430
    0MOL    O   1706   0.170   2.888   2.555
    0MOL    O   1707   0.261   2.807   2.322
    0MOL    O   1708   0.146   3.042   2.343
    0MOL    O   1709   0.442   2.701   2.163
    0MOL    O   1710   0.987   3.247   2.256
    0MOL    O   1711   0.740   3.294   2.332
    0MOL    O   1712   0.646   3.235   2.571
    0MOL    O   1713   0.484   3.241   2.364
    0MOL    O   1714   0.397   3.294   1.315
    0MOL    O   1715   0.163   3.223   2.533
    0MOL    O   1716   0.237   3.282   2.288
    0MOL    Si  1717   0.847   2.820   2.221
    0MOL    Si  1718   0.655   2.894   2.431
    0MOL    Si  1719   0.561   2.855   1.400
    0MOL    Si  1720   0.250   2.859   1.377
    0MOL    Si  1721   0.145   2.890   2.396
    0MOL    Si  1722   0.409   2.825   2.260
    0MOL    Si  1723   0.843   3.301   2.208
    0MOL    Si  1724   0.633   3.204   2.413
    0MOL    Si  1725   0.549   3.301   1.367
    0MOL    Si  1726   0.238   3.300   1.338
    0MOL    Si  1727   0.132   3.199   2.377
    0MOL    Si  1728   0.391   3.299   2.246
    0MOL    O   1729   1.007   2.112   3.551
    0MOL    O   1730   0.778   2.121   3.681
    0MOL    O   1731   0.803   2.243   3.450
    0MOL    O   1732   0.798   1.981   3.460
    0MOL    O   1733   0.661   2.050   3.906
    0MOL    O   1734   0.662   3.860   3.700
    0MOL    O   1735   0.517   2.105   3.694
    0MOL    O   1736   0.585   2.230   2.768
    0MOL    O   1737   0.409   2.064   2.665
    0MOL    O   1738   0.590   1.976   2.834
    0MOL    O   1739   0.216   2.224   2.744
    0MOL    O   1740   0.170   2.047   3.869
    0MOL    O   1741   0.261   2.128   3.636
    0MOL    O   1742   0.146   3.867   3.658
    0MOL    O   1743   0.442   2.233   3.477
    0MOL    O   1744   0.987   3.661   3.571
    0MOL    O   1745   0.740   3.614   3.646
    0MOL    O   1746   0.856   3.454   3.474
    0MOL    O   1747   0.646   3.673   3.885
    0MOL    O   1748   0.484   3.668   3.678
    0MOL    O   1749   0.591   3.454   2.705
    0MOL    O   1750   0.397   3.615   2.629
    0MOL    O   1751   0.190   3.454   2.655
    0MOL    O   1752   0.163   3.685   3.847
    0MOL    O   1753   0.237   3.626   3.602
    0MOL    O   1754   0.425   3.454   3.537
    0MOL    Si  1755   0.847   2.114   3.535
    0MOL    Si  1756   0.655   2.040   3.746
    0MOL    Si  1757   0.561   2.080   2.715
    0MOL    Si  1758   0.250   2.075   2.692
    0MOL    Si  1759   0.145   2.045   3.710
    0MOL    Si  1760   0.409   2.109   3.574
    0MOL    Si  1761   0.843   3.607   3.523
    0MOL    Si  1762   0.633   3.704   3.727
    0MOL    Si  1763   0.549   3.608   2.681
    0MOL    Si  1764   0.238   3.608   2.652
    0MOL    Si  1765   0.132   3.710   3.691
    0MOL    Si  1766   0.391   3.610   3.560
    0MOL    O   1767   2.007   3.810   2.894
    0MOL    O   1768   0.226   3.801   3.024
    0MOL    O   1769   0.202   3.678   2.793
    0MOL    O   1770   0.207   3.941   2.803
    0MOL    O   1771   0.343   3.872   3.249
    0MOL    O   1772   0.342   2.062   3.043
    0MOL    O   1773   0.488   3.817   3.037
    0MOL    O   1774   0.420   3.692   3.425
    0MOL    O   1775   0.596   3.858   3.322
    0MOL    O   1776   0.415   3.946   3.491
    0MOL    O   1777   0.789   3.698   3.401
    0MOL    O   1778   0.835   3.875   3.212
    0MOL    O   1779   0.743   3.793   2.979
    0MOL    O   1780   0.858   2.055   3.001
    0MOL    O   1781   0.562   3.688   2.820
    0MOL    O   1782   0.018   2.260   2.913
    0MOL    O   1783   0.265   2.307   2.989
    0MOL    O   1784   0.148   2.467   2.817
    0MOL    O   1785   0.358   2.248   3.228
    0MOL    O   1786   0.520   2.254   3.021
    0MOL    O   1787   0.413   2.467   3.362
    0MOL    O   1788   0.607   2.307   3.286
    0MOL    O   1789   0.814   2.467   3.312
    0MOL    O   1790   0.842   2.236   3.190
    0MOL    O   1791   0.768   2.296   2.945
    0MOL    O   1792   0.579   2.467   2.880
    0MOL    Si  1793   0.158   3.807   2.878
    0MOL    Si  1794   0.350   3.881   3.088
    0MOL    Si  1795   0.444   3.842   3.372
    0MOL    Si  1796   0.754   3.846   3.349
    0MOL    Si  1797   0.860   3.876   3.053
    0MOL    Si  1798   0.596   3.812   2.917
    0MOL    Si  1799   0.162   2.315   2.866
    0MOL    Si  1800   0.371   2.218   3.070
    0MOL    Si  1801   0.455   2.314   3.338
    0MOL    Si  1802   0.766   2.314   3.310
    0MOL    Si  1803   0.873   2.212   3.034
    0MOL    Si  1804   0.613   2.312   2.903
    0MOL    O   1805   0.002   2.823   3.677
    0MOL    O   1806   1.783   2.814   3.547
    0MOL    O   1807   1.807   2.691   3.778
    0MOL    O   1808   1.802   2.954   3.768
    0MOL    O   1809   1.666   2.885   3.322
    0MOL    O   1810   1.667   3.049   3.528
    0MOL    O   1811   1.521   2.830   3.534
    0MOL    O   1812   1.589   2.705   3.146
    0MOL    O   1813   1.413   2.871   3.249
    0MOL    O   1814   1.594   2.959   3.080
    0MOL    O   1815   1.221   2.711   3.170
    0MOL    O   1816   1.175   2.888   3.359
    0MOL    O   1817   1.266   2.807   3.592
    0MOL    O   1818   1.151   3.042   3.570
    0MOL    O   1819   1.447   2.701   3.751
    0MOL    O   1820   1.991   3.247   3.658
    0MOL    O   1821   1.744   3.294   3.582
    0MOL    O   1822   1.861   3.454   3.754
    0MOL    O   1823   1.651   3.235   3.343
    0MOL    O   1824   1.489   3.241   3.550
    0MOL    O   1825   1.596   3.454   3.209
    0MOL    O   1826   1.402   3.294   3.285
    0MOL    O   1827   1.195   3.454   3.259
    0MOL    O   1828   1.167   3.223   3.381
    0MOL    O   1829   1.241   3.282   3.626
    0MOL    O   1830   1.430   3.454   3.691
    0MOL    Si  1831   1.851   2.820   3.693
    0MOL    Si  1832   1.659   2.894   3.483
    0MOL    Si  1833   1.565   2.855   3.199
    0MOL    Si  1834   1.255   2.859   3.222
    0MOL    Si  1835   1.149   2.890   3.518
    0MOL    Si  1836   1.413   2.825   3.654
    0MOL    Si  1837   1.847   3.301   3.705
    0MOL    Si  1838   1.638   3.204   3.501
    0MOL    Si  1839   1.554   3.301   3.233
    0MOL    Si  1840   1.243   3.300   3.262
    0MOL    Si  1841   1.136   3.199   3.537
    0MOL    Si  1842   1.396   3.299   3.668
    0MOL    O   1843   1.002   3.099   3.020
    0MOL    O   1844   1.231   3.107   2.890
    0MOL    O   1845   1.206   3.230   3.121
    0MOL    O   1846   1.211   2.967   3.111
    0MOL    O   1847   1.348   3.037   2.665
    0MOL    O   1848   1.347   2.873   2.871
    0MOL    O   1849   1.493   3.092   2.877
    0MOL    O   1850   1.424   3.217   3.803
    0MOL    O   1851   1.600   3.050   3.906
    0MOL    O   1852   1.419   2.963   3.737
    0MOL    O   1853   1.793   3.210   3.827
    0MOL    O   1854   1.839   3.034   2.702
    0MOL    O   1855   1.748   3.115   2.935
    0MOL    O   1856   1.863   2.880   2.913
    0MOL    O   1857   1.567   3.220   3.094
    0MOL    O   1858   1.022   2.674   3.000
    0MOL    O   1859   1.269   2.627   2.925
    0MOL    O   1860   1.153   2.467   3.097
    0MOL    O   1861   1.363   2.687   2.686
    0MOL    O   1862   1.525   2.681   2.893
    0MOL    O   1863   1.418   2.467   3.867
    0MOL    O   1864   1.612   2.628   3.942
    0MOL    O   1865   1.818   2.467   3.916
    0MOL    O   1866   1.847   2.698   2.724
    0MOL    O   1867   1.773   2.639   2.969
    0MOL    O   1868   1.584   2.467   3.034
    0MOL    Si  1869   1.162   3.101   3.036
    0MOL    Si  1870   1.354   3.027   2.825
    0MOL    Si  1871   1.448   3.067   3.856
    0MOL    Si  1872   1.759   3.062   3.879
    0MOL    Si  1873   1.864   3.032   2.861
    0MOL    Si  1874   1.600   3.096   2.997
    0MOL    Si  1875   1.166   2.620   3.048
    0MOL    Si  1876   1.376   2.717   2.844
    0MOL    Si  1877   1.460   2.621   3.890
    0MOL    Si  1878   1.771   2.621   3.919
    0MOL    Si  1879   1.877   2.723   2.880
    0MOL    Si  1880   1.618   2.623   3.011
    0MOL    O   1881   1.002   3.810   3.020
    0MOL    O   1882   1.231   3.801   2.890
    0MOL    O   1883   1.206   3.678   3.121
    0MOL    O   1884   1.211   3.941   3.111
    0MOL    O   1885   1.348   3.872   2.665
    0MOL    O   1886   1.347   2.062   2.871
    0MOL    O   1887   1.493   3.817   2.877
    0MOL    O   1888   1.424   3.692   3.803
    0MOL    O   1889   1.600   3.858   3.906
    0MOL    O   1890   1.419   3.946   3.737
    0MOL    O   1891   1.793   3.698   3.827
    0MOL    O   1892   1.839   3.875   2.702
    0MOL    O   1893   1.748   3.793   2.935
    0MOL    O   1894   1.863   2.055   2.913
    0MOL    O   1895   1.567   3.688   3.094
    0MOL    O   1896   1.022   2.260   3.000
    0MOL    O   1897   1.269   2.307   2.925
    0MOL    O   1898   1.363   2.248   2.686
    0MOL    O   1899   1.525   2.254   2.893
    0MOL    O   1900   1.612   2.307   3.942
    0MOL    O   1901   1.847   2.236   2.724
    0MOL    O   1902   1.773   2.296   2.969
    0MOL    Si  1903   1.162   3.807   3.036
    0MOL    Si  1904   1.354   3.881   2.825
    0MOL    Si  1905   1.448   3.842   3.856
    0MOL    Si  1906   1.759   3.846   3.879
    0MOL    Si  1907   1.864   3.876   2.861
    0MOL    Si  1908   1.600   3.812   2.997
    0MOL    Si  1909   1.166   2.315   3.048
    0MOL    Si  1910   1.376   2.218   2.844
    0MOL    Si  1911   1.460   2.314   3.890
    0MOL    Si  1912   1.771   2.314   3.919
    0MOL    Si  1913   1.877   2.212   2.880
    0MOL    Si  1914   1.618   2.312   3.011
    0MOL    O   1915   0.002   2.112   3.677
    0MOL    O   1916   1.783   2.121   3.547
    0MOL    O   1917   1.807   2.243   3.778
    0MOL    O   1918   1.802   1.981   3.768
    0MOL    O   1919   1.666   2.050   3.322
    0MOL    O   1920   1.667   3.860   3.528
    0MOL    O   1921   1.521   2.105   3.534
    0MOL    O   1922   1.589   2.230   3.146
    0MOL    O   1923   1.413   2.064   3.249
    0MOL    O   1924   1.594   1.976   3.080
    0MOL    O   1925   1.221   2.224   3.170
    0MOL    O   1926   1.175   2.047   3.359
    0MOL    O   1927   1.266   2.128   3.592
    0MOL    O   1928   1.151   3.867   3.570
    0MOL    O   1929   1.447   2.233   3.751
    0MOL    O   1930   1.991   3.661   3.658
    0MOL    O   1931   1.744   3.614   3.582
    0MOL    O   1932   1.651   3.673   3.343
    0MOL    O   1933   1.489   3.668   3.550
    0MOL    O   1934   1.402   3.615   3.285
    0MOL    O   1935   1.167   3.685   3.381
    0MOL    O   1936   1.241   3.626   3.626
    0MOL    Si  1937   1.851   2.114   3.693
    0MOL    Si  1938   1.659   2.040   3.483
    0MOL    Si  1939   1.565   2.080   3.199
    0MOL    Si  1940   1.255   2.075   3.222
    0MOL    Si  1941   1.149   2.045   3.518
    0MOL    Si  1942   1.413   2.109   3.654
    0MOL    Si  1943   1.847   3.607   3.705
    0MOL    Si  1944   1.638   3.704   3.501
    0MOL    Si  1945   1.554   3.608   3.233
    0MOL    Si  1946   1.243   3.608   3.262
    0MOL    Si  1947   1.136   3.710   3.537
    0MOL    Si  1948   1.396   3.610   3.668
    0MOL    O   1949   2.007   3.099   2.894
    0MOL    O   1950   0.226   3.107   3.024
    0MOL    O   1951   0.202   3.230   2.793
    0MOL    O   1952   0.207   2.967   2.803
    0MOL    O   1953   0.343   3.037   3.249
    0MOL    O   1954   0.342   2.873   3.043
    0MOL    O   1955   0.488   3.092   3.037
    0MOL    O   1956   0.420   3.217   3.425
    0MOL    O   1957   0.596   3.050   3.322
    0MOL    O   1958   0.415   2.963   3.491
    0MOL    O   1959   0.789   3.210   3.401
    0MOL    O   1960   0.835   3.034   3.212
    0MOL    O   1961   0.743   3.115   2.979
    0MOL    O   1962   0.858   2.880   3.001
    0MOL    O   1963   0.562   3.220   2.820
    0MOL    O   1964   0.018   2.674   2.913
    0MOL    O   1965   0.265   2.627   2.989
    0MOL    O   1966   0.358   2.687   3.228
    0MOL    O   1967   0.520   2.681   3.021
    0MOL    O   1968   0.607   2.628   3.286
    0MOL    O   1969   0.842   2.698   3.190
    0MOL    O   1970   0.768   2.639   2.945
    0MOL    Si  1971   0.158   3.101   2.878
    0MOL    Si  1972   0.350   3.027   3.088
    0MOL    Si  1973   0.444   3.067   3.372
    0MOL    Si  1974   0.754   3.062   3.349
    0MOL    Si  1975   0.860   3.032   3.053
    0MOL    Si  1976   0.596   3.096   2.917
    0MOL    Si  1977   0.162   2.620   2.866
    0MOL    Si  1978   0.371   2.717   3.070
    0MOL    Si  1979   0.455   2.621   3.338
    0MOL    Si  1980   0.766   2.621   3.310
    0MOL    Si  1981   0.873   2.723   3.034
    0MOL    Si  1982   0.613   2.623   2.903
    0MOL    O   1983   1.007   2.823   3.551
    0MOL    O   1984   0.778   2.814   3.681
    0MOL    O   1985   0.803   2.691   3.450
    0MOL    O   1986   0.798   2.954   3.460
    0MOL    O   1987   0.661   2.885   3.906
    0MOL    O   1988   0.662   3.049   3.700
    0MOL    O   1989   0.517   2.830   3.694
    0MOL    O   1990   0.585   2.705   2.768
    0MOL    O   1991   0.409   2.871   2.665
    0MOL    O   1992   0.590   2.959   2.834
    0MOL    O   1993   0.216   2.711   2.744
    0MOL    O   1994   0.170   2.888   3.869
    0MOL    O   1995   0.261   2.807   3.636
    0MOL    O   1996   0.146   3.042   3.658
    0MOL    O   1997   0.442   2.701   3.477
    0MOL    O   1998   0.987   3.247   3.571
    0MOL    O   1999   0.740   3.294   3.646
    0MOL    O   2000   0.646   3.235   3.885
    0MOL    O   2001   0.484   3.241   3.678
    0MOL    O   2002   0.397   3.294   2.629
    0MOL    O   2003   0.163   3.223   3.847
    0MOL    O   2004   0.237   3.282   3.602
    0MOL    Si  2005   0.847   2.820   3.535
    0MOL    Si  2006   0.655   2.894   3.746
    0MOL    Si  2007   0.561   2.855   2.715
    0MOL    Si  2008   0.250   2.859   2.692
    0MOL    Si  2009   0.145   2.890   3.710
    0MOL    Si  2010   0.409   2.825   3.574
    0MOL    Si  2011   0.843   3.301   3.523
    0MOL    Si  2012   0.633   3.204   3.727
    0MOL    Si  2013   0.549   3.301   2.681
    0MOL    Si  2014   0.238   3.300   2.652
    0MOL    Si  2015   0.132   3.199   3.691
    0MOL    Si  2016   0.391   3.299   3.560
    0MOL    O   2017   1.007   2.112   4.865
    0MOL    O   2018   0.778   2.121   4.995
    0MOL    O   2019   0.803   2.243   4.764
    0MOL    O   2020   0.798   1.981   4.774
    0MOL    O   2021   0.661   2.050   5.220
    0MOL    O   2022   0.662   3.860   5.014
    0MOL    O   2023   0.517   2.105   5.008
    0MOL    O   2024   0.585   2.230   4.082
    0MOL    O   2025   0.409   2.064   3.979
    0MOL    O   2026   0.590   1.976   4.148
    0MOL    O   2027   0.216   2.224   4.059
    0MOL    O   2028   0.170   2.047   5.184
    0MOL    O   2029   0.261   2.128   4.951
    0MOL    O   2030   0.146   3.867   4.972
    0MOL    O   2031   0.442   2.233   4.791
    0MOL    O   2032   0.987   3.661   4.885
    0MOL    O   2033   0.740   3.614   4.960
    0MOL    O   2034   0.856   3.454   4.788
    0MOL    O   2035   0.646   3.673   5.199
    0MOL    O   2036   0.484   3.668   4.993
    0MOL    O   2037   0.591   3.454   4.019
    0MOL    O   2038   0.397   3.615   3.943
    0MOL    O   2039   0.190   3.454   3.970
    0MOL    O   2040   0.163   3.685   5.162
    0MOL    O   2041   0.237   3.626   4.916
    0MOL    O   2042   0.425   3.454   4.851
    0MOL    Si  2043   0.847   2.114   4.849
    0MOL    Si  2044   0.655   2.040   5.060
    0MOL    Si  2045   0.561   2.080   4.029
    0MOL    Si  2046   0.250   2.075   4.006
    0MOL    Si  2047   0.145   2.045   5.025
    0MOL    Si  2048   0.409   2.109   4.888
    0MOL    Si  2049   0.843   3.607   4.837
    0MOL    Si  2050   0.633   3.704   5.041
    0MOL    Si  2051   0.549   3.608   3.995
    0MOL    Si  2052   0.238   3.608   3.967
    0MOL    Si  2053   0.132   3.710   5.005
    0MOL    Si  2054   0.391   3.610   4.875
    0MOL    O   2055   2.007   3.810   4.208
    0MOL    O   2056   0.226   3.801   4.338
    0MOL    O   2057   0.202   3.678   4.107
    0MOL    O   2058   0.207   3.941   4.117
    0MOL    O   2059   0.343   3.872   4.563
    0MOL    O   2060   0.342   2.062   4.357
    0MOL    O   2061   0.488   3.817   4.351
    0MOL    O   2062   0.420   3.692   4.739
    0MOL    O   2063   0.596   3.858   4.636
    0MOL    O   2064   0.415   3.946   4.805
    0MOL    O   2065   0.789   3.698   4.716
    0MOL    O   2066   0.835   3.875   4.527
    0MOL    O   2067   0.743   3.793   4.294
    0MOL    O   2068   0.858   2.055   4.315
    0MOL    O   2069   0.562   3.688   4.134
    0MOL    O   2070   0.018   2.260   4.228
    0MOL    O   2071   0.265   2.307   4.303
    0MOL    O   2072   0.148   2.467   4.131
    0MOL    O   2073   0.358   2.248   4.542
    0MOL    O   2074   0.520   2.254   4.336
    0MOL    O   2075   0.413   2.467   4.676
    0MOL    O   2076   0.607   2.307   4.600
    0MOL    O   2077   0.814   2.467   4.627
    0MOL    O   2078   0.842   2.236   4.504
    0MOL    O   2079   0.768   2.296   4.259
    0MOL    O   2080   0.579   2.467   4.194
    0MOL    Si  2081   0.158   3.807   4.192
    0MOL    Si  2082   0.350   3.881   4.403
    0MOL    Si  2083   0.444   3.842   4.686
    0MOL    Si  2084   0.754   3.846   4.663
    0MOL    Si  2085   0.860   3.876   4.367
    0MOL    Si  2086   0.596   3.812   4.231
    0MOL    Si  2087   0.162   2.315   4.180
    0MOL    Si  2088   0.371   2.218   4.384
    0MOL    Si  2089   0.455   2.314   4.653
    0MOL    Si  2090   0.766   2.314   4.624
    0MOL    Si  2091   0.873   2.212   4.348
    0MOL    Si  2092   0.613   2.312   4.217
    0MOL    O   2093   0.002   2.823   4.992
    0MOL    O   2094   1.783   2.814   4.862
    0MOL    O   2095   1.807   2.691   5.092
    0MOL    O   2096   1.802   2.954   5.083
    0MOL    O   2097   1.666   2.885   4.636
    0MOL    O   2098   1.667   3.049   4.842
    0MOL    O   2099   1.521   2.830   4.849
    0MOL    O   2100   1.589   2.705   4.460
    0MOL    O   2101   1.413   2.871   4.564
    0MOL    O   2102   1.594   2.959   4.394
    0MOL    O   2103   1.221   2.711   4.484
    0MOL    O   2104   1.175   2.888   4.673
    0MOL    O   2105   1.266   2.807   4.906
    0MOL    O   2106   1.151   3.042   4.885
    0MOL    O   2107   1.447   2.701   5.065
    0MOL    O   2108   1.991   3.247   4.972
    0MOL    O   2109   1.744   3.294   4.896
    0MOL    O   2110   1.861   3.454   5.069
    0MOL    O   2111   1.651   3.235   4.657
    0MOL    O   2112   1.489   3.241   4.864
    0MOL    O   2113   1.596   3.454   4.524
    0MOL    O   2114   1.402   3.294   4.599
    0MOL    O   2115   1.195   3.454   4.573
    0MOL    O   2116   1.167   3.223   4.695
    0MOL    O   2117   1.241   3.282   4.941
    0MOL    O   2118   1.430   3.454   5.005
    0MOL    Si  2119   1.851   2.820   5.007
    0MOL    Si  2120   1.659   2.894   4.797
    0MOL    Si  2121   1.565   2.855   4.514
    0MOL    Si  2122   1.255   2.859   4.537
    0MOL    Si  2123   1.149   2.890   4.832
    0MOL    Si  2124   1.413   2.825   4.968
    0MOL    Si  2125   1.847   3.301   5.020
    0MOL    Si  2126   1.638   3.204   4.815
    0MOL    Si  2127   1.554   3.301   4.547
    0MOL    Si  2128   1.243   3.300   4.576
    0MOL    Si  2129   1.136   3.199   4.851
    0MOL    Si  2130   1.396   3.299   4.982
    0MOL    O   2131   1.002   3.099   4.335
    0MOL    O   2132   1.231   3.107   4.204
    0MOL    O   2133   1.206   3.230   4.435
    0MOL    O   2134   1.211   2.967   4.425
    0MOL    O   2135   1.348   3.037   3.979
    0MOL    O   2136   1.347   2.873   4.185
    0MOL    O   2137   1.493   3.092   4.192
    0MOL    O   2138   1.424   3.217   5.117
    0MOL    O   2139   1.600   3.050   5.221
    0MOL    O   2140   1.419   2.963   5.051
    0MOL    O   2141   1.793   3.210   5.141
    0MOL    O   2142   1.839   3.034   4.016
    0MOL    O   2143   1.748   3.115   4.249
    0MOL    O   2144   1.863   2.880   4.228
    0MOL    O   2145   1.567   3.220   4.408
    0MOL    O   2146   1.022   2.674   4.315
    0MOL    O   2147   1.269   2.627   4.239
    0MOL    O   2148   1.153   2.467   4.412
    0MOL    O   2149   1.363   2.687   4.000
    0MOL    O   2150   1.525   2.681   4.207
    0MOL    O   2151   1.418   2.467   5.181
    0MOL    O   2152   1.612   2.628   5.256
    0MOL    O   2153   1.818   2.467   5.230
    0MOL    O   2154   1.847   2.698   4.038
    0MOL    O   2155   1.773   2.639   4.283
    0MOL    O   2156   1.584   2.467   4.348
    0MOL    Si  2157   1.162   3.101   4.350
    0MOL    Si  2158   1.354   3.027   4.140
    0MOL    Si  2159   1.448   3.067   5.171
    0MOL    Si  2160   1.759   3.062   5.194
    0MOL    Si  2161   1.864   3.032   4.175
    0MOL    Si  2162   1.600   3.096   4.311
    0MOL    Si  2163   1.166   2.620   4.363
    0MOL    Si  2164   1.376   2.717   4.158
    0MOL    Si  2165   1.460   2.621   5.204
    0MOL    Si  2166   1.771   2.621   5.233
    0MOL    Si  2167   1.877   2.723   4.194
    0MOL    Si  2168   1.618   2.623   4.325
    0MOL    O   2169   1.002   3.810   4.335
    0MOL    O   2170   1.231   3.801   4.204
    0MOL    O   2171   1.206   3.678   4.435
    0MOL    O   2172   1.211   3.941   4.425
    0MOL    O   2173   1.348   3.872   3.979
    0MOL    O   2174   1.347   2.062   4.185
    0MOL    O   2175   1.493   3.817   4.192
    0MOL    O   2176   1.424   3.692   5.117
    0MOL    O   2177   1.600   3.858   5.221
    0MOL    O   2178   1.419   3.946   5.051
    0MOL    O   2179   1.793   3.698   5.141
    0MOL    O   2180   1.839   3.875   4.016
    0MOL    O   2181   1.748   3.793   4.249
    0MOL    O   2182   1.863   2.055   4.228
    0MOL    O   2183   1.567   3.688   4.408
    0MOL    O   2184   1.022   2.260   4.315
    0MOL    O   2185   1.269   2.307   4.239
    0MOL    O   2186   1.363   2.248   4.000
    0MOL    O   2187   1.525   2.254   4.207
    0MOL    O   2188   1.612   2.307   5.256
    0MOL    O   2189   1.847   2.236   4.038
    0MOL    O   2190   1.773   2.296   4.283
    0MOL    Si  2191   1.162   3.807   4.350
    0MOL    Si  2192   1.354   3.881   4.140
    0MOL    Si  2193   1.448   3.842   5.171
    0MOL    Si  2194   1.759   3.846   5.194
    0MOL    Si  2195   1.864   3.876   4.175
    0MOL    Si  2196   1.600   3.812   4.311
    0MOL    Si  2197   1.166   2.315   4.363
    0MOL    Si  2198   1.376   2.218   4.158
    0MOL    Si  2199   1.460   2.314   5.204
    0MOL    Si  2200   1.771   2.314   5.233
    0MOL    Si  2201   1.877   2.212   4.194
    0MOL    Si  2202   1.618   2.312   4.325
    0MOL    O   2203   0.002   2.112   4.992
    0MOL    O   2204   1.783   2.121   4.862
    0MOL    O   2205   1.807   2.243   5.092
    0MOL    O   2206   1.802   1.981   5.083
    0MOL    O   2207   1.666   2.050   4.636
    0MOL    O   2208   1.667   3.860   4.842
    0MOL    O   2209   1.521   2.105   4.849
    0MOL    O   2210   1.589   2.230   4.460
    0MOL    O   2211   1.413   2.064   4.564
    0MOL    O   2212   1.594   1.976   4.394
    0MOL    O   2213   1.221   2.224   4.484
    0MOL    O   2214   1.175   2.047   4.673
    0MOL    O   2215   1.266   2.128   4.906
    0MOL    O   2216   1.151   3.867   4.885
    0MOL    O   2217   1.447   2.233   5.065
    0MOL    O   2218   1.991   3.661   4.972
    0MOL    O   2219   1.744   3.614   4.896
    0MOL    O   2220   1.651   3.673   4.657
    0MOL    O   2221   1.489   3.668   4.864
    0MOL    O   2222   1.402   3.615   4.599
    0MOL    O   2223   1.167   3.685   4.695
    0MOL    O   2224   1.241   3.626   4.941
    0MOL    Si  2225   1.851   2.114   5.007
    0MOL    Si  2226   1.659   2.040   4.797
    0MOL    Si  2227   1.565   2.080   4.514
    0MOL    Si  2228   1.255   2.075   4.537
    0MOL    Si  2229   1.149   2.045   4.832
    0MOL    Si  2230   1.413   2.109   4.968
    0MOL    Si  2231   1.847   3.607   5.020
    0MOL    Si  2232   1.638   3.704   4.815
    0MOL    Si  2233   1.554   3.608   4.547
    0MOL    Si  2234   1.243   3.608   4.576
    0MOL    Si  2235   1.136   3.710   4.851
    0MOL    Si  2236   1.396   3.610   4.982
    0MOL    O   2237   2.007   3.099   4.208
    0MOL    O   2238   0.226   3.107   4.338
    0MOL    O   2239   0.202   3.230   4.107
    0MOL    O   2240   0.207   2.967   4.117
    0MOL    O   2241   0.343   3.037   4.563
    0MOL    O   2242   0.342   2.873   4.357
    0MOL    O   2243   0.488   3.092   4.351
    0MOL    O   2244   0.420   3.217   4.739
    0MOL    O   2245   0.596   3.050   4.636
    0MOL    O   2246   0.415   2.963   4.805
    0MOL    O   2247   0.789   3.210   4.716
    0MOL    O   2248   0.835   3.034   4.527
    0MOL    O   2249   0.743   3.115   4.294
    0MOL    O   2250   0.858   2.880   4.315
    0MOL    O   2251   0.562   3.220   4.134
    0MOL    O   2252   0.018   2.674   4.228
    0MOL    O   2253   0.265   2.627   4.303
    0MOL    O   2254   0.358   2.687   4.542
    0MOL    O   2255   0.520   2.681   4.336
    0MOL    O   2256   0.607   2.628   4.600
    0MOL    O   2257   0.842   2.698   4.504
    0MOL    O   2258   0.768   2.639   4.259
    0MOL    Si  2259   0.158   3.101   4.192
    0MOL    Si  2260   0.350   3.027   4.403
    0MOL    Si  2261   0.444   3.067   4.686
    0MOL    Si  2262   0.754   3.062   4.663
    0MOL    Si  2263   0.860   3.032   4.367
    0MOL    Si  2264   0.596   3.096   4.231
    0MOL    Si  2265   0.162   2.620   4.180
    0MOL    Si  2266   0.371   2.717   4.384
    0MOL    Si  2267   0.455   2.621   4.653
    0MOL    Si  2268   0.766   2.621   4.624
    0MOL    Si  2269   0.873   2.723   4.348
    0MOL    Si  2270   0.613   2.623   4.217
    0MOL    O   2271   1.007   2.823   4.865
    0MOL    O   2272   0.778   2.814   4.995
    0MOL    O   2273   0.803   2.691   4.764
    0MOL    O   2274   0.798   2.954   4.774
    0MOL    O   2275   0.661   2.885   5.220
    0MOL    O   2276   0.662   3.049   5.014
    0MOL    O   2277   0.517   2.830   5.008
    0MOL    O   2278   0.585   2.705   4.082
    0MOL    O   2279   0.409   2.871   3.979
    0MOL    O   2280   0.590   2.959   4.148
    0MOL    O   2281   0.216   2.711   4.059
    0MOL    O   2282   0.170   2.888   5.184
    0MOL    O   2283   0.261   2.807   4.951
    0MOL    O   2284   0.146   3.042   4.972
    0MOL    O   2285   0.442   2.701   4.791
    0MOL    O   2286   0.987   3.247   4.885
    0MOL    O   2287   0.740   3.294   4.960
    0MOL    O   2288   0.646   3.235   5.199
    0MOL    O   2289   0.484   3.241   4.993
    0MOL    O   2290   0.397   3.294   3.943
    0MOL    O   2291   0.163   3.223   5.162
    0MOL    O   2292   0.237   3.282   4.916
    0MOL    Si  2293   0.847   2.820   4.849
    0MOL    Si  2294   0.655   2.894   5.060
    0MOL    Si  2295   0.561   2.855   4.029
    0MOL    Si  2296   0.250   2.859   4.006
    0MOL    Si  2297   0.145   2.890   5.025
    0MOL    Si  2298   0.409   2.825   4.888
    0MOL    Si  2299   0.843   3.301   4.837
    0MOL    Si  2300   0.633   3.204   5.041
    0MOL    Si  2301   0.549   3.301   3.995
    0MOL    Si  2302   0.238   3.300   3.967
    0MOL    Si  2303   0.132   3.199   5.005
    0MOL    Si  2304   0.391   3.299   4.875
    0MOL    O   2305   1.007   4.086   0.922
    0MOL    O   2306   0.778   4.094   1.052
    0MOL    O   2307   0.803   4.217   0.822
    0MOL    O   2308   0.798   3.954   0.831
    0MOL    O   2309   0.661   4.024   1.278
    0MOL    O   2310   0.662   5.834   1.072
    0MOL    O   2311   0.517   4.079   1.065
    0MOL    O   2312   0.585   4.203   0.139
    0MOL    O   2313   0.409   4.037   0.036
    0MOL    O   2314   0.590   3.950   0.206
    0MOL    O   2315   0.216   4.197   0.116
    0MOL    O   2316   0.170   4.021   1.241
    0MOL    O   2317   0.261   4.102   1.008
    0MOL    O   2318   0.146   5.840   1.029
    0MOL    O   2319   0.442   4.207   0.848
    0MOL    O   2320   0.987   5.635   0.942
    0MOL    O   2321   0.740   5.588   1.018
    0MOL    O   2322   0.856   5.428   0.845
    0MOL    O   2323   0.646   5.647   1.256
    0MOL    O   2324   0.484   5.642   1.050
    0MOL    O   2325   0.591   5.428   0.076
    0MOL    O   2326   0.397   5.588   0.000
    0MOL    O   2327   0.190   5.428   0.027
    0MOL    O   2328   0.163   5.659   1.219
    0MOL    O   2329   0.237   5.600   0.973
    0MOL    O   2330   0.425   5.428   0.909
    0MOL    Si  2331   0.847   4.088   0.906
    0MOL    Si  2332   0.655   4.014   1.117
    0MOL    Si  2333   0.561   4.053   0.086
    0MOL    Si  2334   0.250   4.049   0.063
    0MOL    Si  2335   0.145   4.019   1.082
    0MOL    Si  2336   0.409   4.083   0.946
    0MOL    Si  2337   0.843   5.581   0.894
    0MOL    Si  2338   0.633   5.678   1.099
    0MOL    Si  2339   0.549   5.581   0.053
    0MOL    Si  2340   0.238   5.582   0.024
    0MOL    Si  2341   0.132   5.683   1.063
    0MOL    Si  2342   0.391   5.583   0.932
    0MOL    O   2343   2.007   5.783   0.265
    0MOL    O   2344   0.226   5.775   0.395
    0MOL    O   2345   0.202   5.652   0.164
    0MOL    O   2346   0.207   5.915   0.174
    0MOL    O   2347   0.343   5.845   0.621
    0MOL    O   2348   0.342   4.035   0.415
    0MOL    O   2349   0.488   5.790   0.408
    0MOL    O   2350   0.420   5.666   0.796
    0MOL    O   2351   0.596   5.832   0.693
    0MOL    O   2352   0.415   5.919   0.863
    0MOL    O   2353   0.789   5.672   0.773
    0MOL    O   2354   0.835   5.848   0.584
    0MOL    O   2355   0.743   5.767   0.351
    0MOL    O   2356   0.858   4.029   0.372
    0MOL    O   2357   0.562   5.662   0.191
    0MOL    O   2358   0.018   4.234   0.285
    0MOL    O   2359   0.265   4.281   0.361
    0MOL    O   2360   0.148   4.441   0.188
    0MOL    O   2361   0.358   4.222   0.599
    0MOL    O   2362   0.520   4.228   0.393
    0MOL    O   2363   0.413   4.441   0.733
    0MOL    O   2364   0.607   4.281   0.657
    0MOL    O   2365   0.814   4.441   0.684
    0MOL    O   2366   0.842   4.210   0.562
    0MOL    O   2367   0.768   4.269   0.316
    0MOL    O   2368   0.579   4.441   0.251
    0MOL    Si  2369   0.158   5.781   0.249
    0MOL    Si  2370   0.350   5.855   0.460
    0MOL    Si  2371   0.444   5.816   0.743
    0MOL    Si  2372   0.754   5.820   0.720
    0MOL    Si  2373   0.860   5.850   0.425
    0MOL    Si  2374   0.596   5.786   0.289
    0MOL    Si  2375   0.162   4.288   0.237
    0MOL    Si  2376   0.371   4.191   0.442
    0MOL    Si  2377   0.455   4.288   0.710
    0MOL    Si  2378   0.766   4.287   0.681
    0MOL    Si  2379   0.873   4.186   0.406
    0MOL    Si  2380   0.613   4.286   0.275
    0MOL    O   2381   0.002   4.797   1.049
    0MOL    O   2382   1.783   4.788   0.919
    0MOL    O   2383   1.807   4.665   1.150
    0MOL    O   2384   1.802   4.928   1.140
    0MOL    O   2385   1.666   4.858   0.694
    0MOL    O   2386   1.667   5.022   0.900
    0MOL    O   2387   1.521   4.804   0.906
    0MOL    O   2388   1.589   4.679   0.518
    0MOL    O   2389   1.413   4.845   0.621
    0MOL    O   2390   1.594   4.933   0.452
    0MOL    O   2391   1.221   4.685   0.541
    0MOL    O   2392   1.175   4.862   0.730
    0MOL    O   2393   1.266   4.780   0.963
    0MOL    O   2394   1.151   5.016   0.942
    0MOL    O   2395   1.447   4.675   1.123
    0MOL    O   2396   1.991   5.221   1.029
    0MOL    O   2397   1.744   5.268   0.954
    0MOL    O   2398   1.861   5.428   1.126
    0MOL    O   2399   1.651   5.209   0.715
    0MOL    O   2400   1.489   5.214   0.921
    0MOL    O   2401   1.596   5.428   0.581
    0MOL    O   2402   1.402   5.268   0.657
    0MOL    O   2403   1.195   5.428   0.630
    0MOL    O   2404   1.167   5.197   0.752
    0MOL    O   2405   1.241   5.256   0.998
    0MOL    O   2406   1.430   5.428   1.063
    0MOL    Si  2407   1.851   4.794   1.065
    0MOL    Si  2408   1.659   4.868   0.854
    0MOL    Si  2409   1.565   4.829   0.571
    0MOL    Si  2410   1.255   4.833   0.594
    0MOL    Si  2411   1.149   4.863   0.889
    0MOL    Si  2412   1.413   4.799   1.026
    0MOL    Si  2413   1.847   5.275   1.077
    0MOL    Si  2414   1.638   5.178   0.873
    0MOL    Si  2415   1.554   5.274   0.604
    0MOL    Si  2416   1.243   5.274   0.633
    0MOL    Si  2417   1.136   5.172   0.909
    0MOL    Si  2418   1.396   5.272   1.039
    0MOL    O   2419   1.002   5.072   0.392
    0MOL    O   2420   1.231   5.081   0.262
    0MOL    O   2421   1.206   5.204   0.493
    0MOL    O   2422   1.211   4.941   0.483
    0MOL    O   2423   1.348   5.011   0.037
    0MOL    O   2424   1.347   4.847   0.242
    0MOL    O   2425   1.493   5.065   0.249
    0MOL    O   2426   1.424   5.190   1.175
    0MOL    O   2427   1.600   5.024   1.278
    0MOL    O   2428   1.419   4.937   1.109
    0MOL    O   2429   1.793   5.184   1.198
    0MOL    O   2430   1.839   5.008   0.073
    0MOL    O   2431   1.748   5.089   0.306
    0MOL    O   2432   1.863   4.853   0.285
    0MOL    O   2433   1.567   5.194   0.466
    0MOL    O   2434   1.022   4.648   0.372
    0MOL    O   2435   1.269   4.601   0.297
    0MOL    O   2436   1.153   4.441   0.469
    0MOL    O   2437   1.363   4.660   0.058
    0MOL    O   2438   1.525   4.655   0.264
    0MOL    O   2439   1.418   4.441   1.238
    0MOL    O   2440   1.612   4.602   1.314
    0MOL    O   2441   1.818   4.441   1.287
    0MOL    O   2442   1.847   4.672   0.095
    0MOL    O   2443   1.773   4.613   0.341
    0MOL    O   2444   1.584   4.441   0.406
    0MOL    Si  2445   1.162   5.075   0.408
    0MOL    Si  2446   1.354   5.001   0.197
    0MOL    Si  2447   1.448   5.040   1.228
    0MOL    Si  2448   1.759   5.036   1.251
    0MOL    Si  2449   1.864   5.006   0.232
    0MOL    Si  2450   1.600   5.070   0.368
    0MOL    Si  2451   1.166   4.594   0.420
    0MOL    Si  2452   1.376   4.691   0.215
    0MOL    Si  2453   1.460   4.595   1.261
    0MOL    Si  2454   1.771   4.595   1.290
    0MOL    Si  2455   1.877   4.697   0.251
    0MOL    Si  2456   1.618   4.597   0.382
    0MOL    O   2457   1.002   5.783   0.392
    0MOL    O   2458   1.231   5.775   0.262
    0MOL    O   2459   1.206   5.652   0.493
    0MOL    O   2460   1.211   5.915   0.483
    0MOL    O   2461   1.348   5.845   0.037
    0MOL    O   2462   1.347   4.035   0.242
    0MOL    O   2463   1.493   5.790   0.249
    0MOL    O   2464   1.424   5.666   1.175
    0MOL    O   2465   1.600   5.832   1.278
    0MOL    O   2466   1.419   5.919   1.109
    0MOL    O   2467   1.793   5.672   1.198
    0MOL    O   2468   1.839   5.848   0.073
    0MOL    O   2469   1.748   5.767   0.306
    0MOL    O   2470   1.863   4.029   0.285
    0MOL    O   2471   1.567   5.662   0.466
    0MOL    O   2472   1.022   4.234   0.372
    0MOL    O   2473   1.269   4.281   0.297
    0MOL    O   2474   1.363   4.222   0.058
    0MOL    O   2475   1.525   4.228   0.264
    0MOL    O   2476   1.612   4.281   1.314
    0MOL    O   2477   1.847   4.210   0.095
    0MOL    O   2478   1.773   4.269   0.341
    0MOL    Si  2479   1.162   5.781   0.408
    0MOL    Si  2480   1.354   5.855   0.197
    0MOL    Si  2481   1.448   5.816   1.228
    0MOL    Si  2482   1.759   5.820   1.251
    0MOL    Si  2483   1.864   5.850   0.232
    0MOL    Si  2484   1.600   5.786   0.368
    0MOL    Si  2485   1.166   4.288   0.420
    0MOL    Si  2486   1.376   4.191   0.215
    0MOL    Si  2487   1.460   4.288   1.261
    0MOL    Si  2488   1.771   4.287   1.290
    0MOL    Si  2489   1.877   4.186   0.251
    0MOL    Si  2490   1.618   4.286   0.382
    0MOL    O   2491   0.002   4.086   1.049
    0MOL    O   2492   1.783   4.094   0.919
    0MOL    O   2493   1.807   4.217   1.150
    0MOL    O   2494   1.802   3.954   1.140
    0MOL    O   2495   1.666   4.024   0.694
    0MOL    O   2496   1.667   5.834   0.900
    0MOL    O   2497   1.521   4.079   0.906
    0MOL    O   2498   1.589   4.203   0.518
    0MOL    O   2499   1.413   4.037   0.621
    0MOL    O   2500   1.594   3.950   0.452
    0MOL    O   2501   1.221   4.197   0.541
    0MOL    O   2502   1.175   4.021   0.730
    0MOL    O   2503   1.266   4.102   0.963
    0MOL    O   2504   1.151   5.840   0.942
    0MOL    O   2505   1.447   4.207   1.123
    0MOL    O   2506   1.991   5.635   1.029
    0MOL    O   2507   1.744   5.588   0.954
    0MOL    O   2508   1.651   5.647   0.715
    0MOL    O   2509   1.489   5.642   0.921
    0MOL    O   2510   1.402   5.588   0.657
    0MOL    O   2511   1.167   5.659   0.752
    0MOL    O   2512   1.241   5.600   0.998
    0MOL    Si  2513   1.851   4.088   1.065
    0MOL    Si  2514   1.659   4.014   0.854
    0MOL    Si  2515   1.565   4.053   0.571
    0MOL    Si  2516   1.255   4.049   0.594
    0MOL    Si  2517   1.149   4.019   0.889
    0MOL    Si  2518   1.413   4.083   1.026
    0MOL    Si  2519   1.847   5.581   1.077
    0MOL    Si  2520   1.638   5.678   0.873
    0MOL    Si  2521   1.554   5.581   0.604
    0MOL    Si  2522   1.243   5.582   0.633
    0MOL    Si  2523   1.136   5.683   0.909
    0MOL    Si  2524   1.396   5.583   1.039
    0MOL    O   2525   2.007   5.072   0.265
    0MOL    O   2526   0.226   5.081   0.395
    0MOL    O   2527   0.202   5.204   0.164
    0MOL    O   2528   0.207   4.941   0.174
    0MOL    O   2529   0.343   5.011   0.621
    0MOL    O   2530   0.342   4.847   0.415
    0MOL    O   2531   0.488   5.065   0.408
    0MOL    O   2532   0.420   5.190   0.796
    0MOL    O   2533   0.596   5.024   0.693
    0MOL    O   2534   0.415   4.937   0.863
    0MOL    O   2535   0.789   5.184   0.773
    0MOL    O   2536   0.835   5.008   0.584
    0MOL    O   2537   0.743   5.089   0.351
    0MOL    O   2538   0.858   4.853   0.372
    0MOL    O   2539   0.562   5.194   0.191
    0MOL    O   2540   0.018   4.648   0.285
    0MOL    O   2541   0.265   4.601   0.361
    0MOL    O   2542   0.358   4.660   0.599
    0MOL    O   2543   0.520   4.655   0.393
    0MOL    O   2544   0.607   4.602   0.657
    0MOL    O   2545   0.842   4.672   0.562
    0MOL    O   2546   0.768   4.613   0.316
    0MOL    Si  2547   0.158   5.075   0.249
    0MOL    Si  2548   0.350   5.001   0.460
    0MOL    Si  2549   0.444   5.040   0.743
    0MOL    Si  2550   0.754   5.036   0.720
    0MOL    Si  2551   0.860   5.006   0.425
    0MOL    Si  2552   0.596   5.070   0.289
    0MOL    Si  2553   0.162   4.594   0.237
    0MOL    Si  2554   0.371   4.691   0.442
    0MOL    Si  2555   0.455   4.595   0.710
    0MOL    Si  2556   0.766   4.595   0.681
    0MOL    Si  2557   0.873   4.697   0.406
    0MOL    Si  2558   0.613   4.597   0.275
    0MOL    O   2559   1.007   4.797   0.922
    0MOL    O   2560   0.778   4.788   1.052
    0MOL    O   2561   0.803   4.665   0.822
    0MOL    O   2562   0.798   4.928   0.831
    0MOL    O   2563   0.661   4.858   1.278
    0MOL    O   2564   0.662   5.022   1.072
    0MOL    O   2565   0.517   4.804   1.065
    0MOL    O   2566   0.585   4.679   0.139
    0MOL    O   2567   0.409   4.845   0.036
    0MOL    O   2568   0.590   4.933   0.206
    0MOL    O   2569   0.216   4.685   0.116
    0MOL    O   2570   0.170   4.862   1.241
    0MOL    O   2571   0.261   4.780   1.008
    0MOL    O   2572   0.146   5.016   1.029
    0MOL    O   2573   0.442   4.675   0.848
    0MOL    O   2574   0.987   5.221   0.942
    0MOL    O   2575   0.740   5.268   1.018
    0MOL    O   2576   0.646   5.209   1.256
    0MOL    O   2577   0.484   5.214   1.050
    0MOL    O   2578   0.397   5.268   0.000
    0MOL    O   2579   0.163   5.197   1.219
    0MOL    O   2580   0.237   5.256   0.973
    0MOL    Si  2581   0.847   4.794   0.906
    0MOL    Si  2582   0.655   4.868   1.117
    0MOL    Si  2583   0.561   4.829   0.086
    0MOL    Si  2584   0.250   4.833   0.063
    0MOL    Si  2585   0.145   4.863   1.082
    0MOL    Si  2586   0.409   4.799   0.946
    0MOL    Si  2587   0.843   5.275   0.894
    0MOL    Si  2588   0.633   5.178   1.099
    0MOL    Si  2589   0.549   5.274   0.053
    0MOL    Si  2590   0.238   5.274   0.024
    0MOL    Si  2591   0.132   5.172   1.063
    0MOL    Si  2592   0.391   5.272   0.932
    0MOL    O   2593   1.007   4.086   2.237
    0MOL    O   2594   0.778   4.094   2.367
    0MOL    O   2595   0.803   4.217   2.136
    0MOL    O   2596   0.798   3.954   2.146
    0MOL    O   2597   0.661   4.024   2.592
    0MOL    O   2598   0.662   5.834   2.386
    0MOL    O   2599   0.517   4.079   2.380
    0MOL    O   2600   0.585   4.203   1.454
    0MOL    O   2601   0.409   4.037   1.350
    0MOL    O   2602   0.590   3.950   1.520
    0MOL    O   2603   0.216   4.197   1.430
    0MOL    O   2604   0.170   4.021   2.555
    0MOL    O   2605   0.261   4.102   2.322
    0MOL    O   2606   0.146   5.840   2.343
    0MOL    O   2607   0.442   4.207   2.163
    0MOL    O   2608   0.987   5.635   2.256
    0MOL    O   2609   0.740   5.588   2.332
    0MOL    O   2610   0.856   5.428   2.159
    0MOL    O   2611   0.646   5.647   2.571
    0MOL    O   2612   0.484   5.642   2.364
    0MOL    O   2613   0.591   5.428   1.390
    0MOL    O   2614   0.397   5.588   1.315
    0MOL    O   2615   0.190   5.428   1.341
    0MOL    O   2616   0.163   5.659   2.533
    0MOL    O   2617   0.237   5.600   2.288
    0MOL    O   2618   0.425   5.428   2.223
    0MOL    Si  2619   0.847   4.088   2.221
    0MOL    Si  2620   0.655   4.014   2.431
    0MOL    Si  2621   0.561   4.053   1.400
    0MOL    Si  2622   0.250   4.049   1.377
    0MOL    Si  2623   0.145   4.019   2.396
    0MOL    Si  2624   0.409   4.083   2.260
    0MOL    Si  2625   0.843   5.581   2.208
    0MOL    Si  2626   0.633   5.678   2.413
    0MOL    Si  2627   0.549   5.581   1.367
    0MOL    Si  2628   0.238   5.582   1.338
    0MOL    Si  2629   0.132   5.683   2.377
    0MOL    Si  2630   0.391   5.583   2.246
    0MOL    O   2631   2.007   5.783   1.579
    0MOL    O   2632   0.226   5.775   1.709
    0MOL    O   2633   0.202   5.652   1.479
    0MOL    O   2634   0.207   5.915   1.489
    0MOL    O   2635   0.343   5.845   1.935
    0MOL    O   2636   0.342   4.035   1.729
    0MOL    O   2637   0.488   5.790   1.722
    0MOL    O   2638   0.420   5.666   2.111
    0MOL    O   2639   0.596   5.832   2.007
    0MOL    O   2640   0.415   5.919   2.177
    0MOL    O   2641   0.789   5.672   2.087
    0MOL    O   2642   0.835   5.848   1.898
    0MOL    O   2643   0.743   5.767   1.665
    0MOL    O   2644   0.858   4.029   1.686
    0MOL    O   2645   0.562   5.662   1.506
    0MOL    O   2646   0.018   4.234   1.599
    0MOL    O   2647   0.265   4.281   1.675
    0MOL    O   2648   0.148   4.441   1.502
    0MOL    O   2649   0.358   4.222   1.914
    0MOL    O   2650   0.520   4.228   1.707
    0MOL    O   2651   0.413   4.441   2.047
    0MOL    O   2652   0.607   4.281   1.972
    0MOL    O   2653   0.814   4.441   1.998
    0MOL    O   2654   0.842   4.210   1.876
    0MOL    O   2655   0.768   4.269   1.630
    0MOL    O   2656   0.579   4.441   1.566
    0MOL    Si  2657   0.158   5.781   1.564
    0MOL    Si  2658   0.350   5.855   1.774
    0MOL    Si  2659   0.444   5.816   2.057
    0MOL    Si  2660   0.754   5.820   2.034
    0MOL    Si  2661   0.860   5.850   1.739
    0MOL    Si  2662   0.596   5.786   1.603
    0MOL    Si  2663   0.162   4.288   1.551
    0MOL    Si  2664   0.371   4.191   1.756
    0MOL    Si  2665   0.455   4.288   2.024
    0MOL    Si  2666   0.766   4.287   1.995
    0MOL    Si  2667   0.873   4.186   1.720
    0MOL    Si  2668   0.613   4.286   1.589
    0MOL    O   2669   0.002   4.797   2.363
    0MOL    O   2670   1.783   4.788   2.233
    0MOL    O   2671   1.807   4.665   2.464
    0MOL    O   2672   1.802   4.928   2.454
    0MOL    O   2673   1.666   4.858   2.008
    0MOL    O   2674   1.667   5.022   2.214
    0MOL    O   2675   1.521   4.804   2.220
    0MOL    O   2676   1.589   4.679   1.832
    0MOL    O   2677   1.413   4.845   1.935
    0MOL    O   2678   1.594   4.933   1.766
    0MOL    O   2679   1.221   4.685   1.855
    0MOL    O   2680   1.175   4.862   2.044
    0MOL    O   2681   1.266   4.780   2.277
    0MOL    O   2682   1.151   5.016   2.256
    0MOL    O   2683   1.447   4.675   2.437
    0MOL    O   2684   1.991   5.221   2.343
    0MOL    O   2685   1.744   5.268   2.268
    0MOL    O   2686   1.861   5.428   2.440
    0MOL    O   2687   1.651   5.209   2.029
    0MOL    O   2688   1.489   5.214   2.235
    0MOL    O   2689   1.596   5.428   1.895
    0MOL    O   2690   1.402   5.268   1.971
    0MOL    O   2691   1.195   5.428   1.944
    0MOL    O   2692   1.167   5.197   2.067
    0MOL    O   2693   1.241   5.256   2.312
    0MOL    O   2694   1.430   5.428   2.377
    0MOL    Si  2695   1.851   4.794   2.379
    0MOL    Si  2696   1.659   4.868   2.168
    0MOL    Si  2697   1.565   4.829   1.885
    0MOL    Si  2698   1.255   4.833   1.908
    0MOL    Si  2699   1.149   4.863   2.204
    0MOL    Si  2700   1.413   4.799   2.340
    0MOL    Si  2701   1.847   5.275   2.391
    0MOL    Si  2702   1.638   5.178   2.187
    0MOL    Si  2703   1.554   5.274   1.918
    0MOL    Si  2704   1.243   5.274   1.947
    0MOL    Si  2705   1.136   5.172   2.223
    0MOL    Si  2706   1.396   5.272   2.354
    0MOL    O   2707   1.002   5.072   1.706
    0MOL    O   2708   1.231   5.081   1.576
    0MOL    O   2709   1.206   5.204   1.807
    0MOL    O   2710   1.211   4.941   1.797
    0MOL    O   2711   1.348   5.011   1.351
    0MOL    O   2712   1.347   4.847   1.557
    0MOL    O   2713   1.493   5.065   1.563
    0MOL    O   2714   1.424   5.190   2.489
    0MOL    O   2715   1.600   5.024   2.592
    0MOL    O   2716   1.419   4.937   2.423
    0MOL    O   2717   1.793   5.184   2.512
    0MOL    O   2718   1.839   5.008   1.387
    0MOL    O   2719   1.748   5.089   1.620
    0MOL    O   2720   1.863   4.853   1.599
    0MOL    O   2721   1.567   5.194   1.780
    0MOL    O   2722   1.022   4.648   1.686
    0MOL    O   2723   1.269   4.601   1.611
    0MOL    O   2724   1.153   4.441   1.783
    0MOL    O   2725   1.363   4.660   1.372
    0MOL    O   2726   1.525   4.655   1.578
    0MOL    O   2727   1.418   4.441   2.552
    0MOL    O   2728   1.612   4.602   2.628
    0MOL    O   2729   1.818   4.441   2.601
    0MOL    O   2730   1.847   4.672   1.410
    0MOL    O   2731   1.773   4.613   1.655
    0MOL    O   2732   1.584   4.441   1.720
    0MOL    Si  2733   1.162   5.075   1.722
    0MOL    Si  2734   1.354   5.001   1.511
    0MOL    Si  2735   1.448   5.040   2.542
    0MOL    Si  2736   1.759   5.036   2.565
    0MOL    Si  2737   1.864   5.006   1.546
    0MOL    Si  2738   1.600   5.070   1.683
    0MOL    Si  2739   1.166   4.594   1.734
    0MOL    Si  2740   1.376   4.691   1.530
    0MOL    Si  2741   1.460   4.595   2.576
    0MOL    Si  2742   1.771   4.595   2.604
    0MOL    Si  2743   1.877   4.697   1.566
    0MOL    Si  2744   1.618   4.597   1.696
    0MOL    O   2745   1.002   5.783   1.706
    0MOL    O   2746   1.231   5.775   1.576
    0MOL    O   2747   1.206   5.652   1.807
    0MOL    O   2748   1.211   5.915   1.797
    0MOL    O   2749   1.348   5.845   1.351
    0MOL    O   2750   1.347   4.035   1.557
    0MOL    O   2751   1.493   5.790   1.563
    0MOL    O   2752   1.424   5.666   2.489
    0MOL    O   2753   1.600   5.832   2.592
    0MOL    O   2754   1.419   5.919   2.423
    0MOL    O   2755   1.793   5.672   2.512
    0MOL    O   2756   1.839   5.848   1.387
    0MOL    O   2757   1.748   5.767   1.620
    0MOL    O   2758   1.863   4.029   1.599
    0MOL    O   2759   1.567   5.662   1.780
    0MOL    O   2760   1.022   4.234   1.686
    0MOL    O   2761   1.269   4.281   1.611
    0MOL    O   2762   1.363   4.222   1.372
    0MOL    O   2763   1.525   4.228   1.578
    0MOL    O   2764   1.612   4.281   2.628
    0MOL    O   2765   1.847   4.210   1.410
    0MOL    O   2766   1.773   4.269   1.655
    0MOL    Si  2767   1.162   5.781   1.722
    0MOL    Si  2768   1.354   5.855   1.511
    0MOL    Si  2769   1.448   5.816   2.542
    0MOL    Si  2770   1.759   5.820   2.565
    0MOL    Si  2771   1.864   5.850   1.546
    0MOL    Si  2772   1.600   5.786   1.683
    0MOL    Si  2773   1.166   4.288   1.734
    0MOL    Si  2774   1.376   4.191   1.530
    0MOL    Si  2775   1.460   4.288   2.576
    0MOL    Si  2776   1.771   4.287   2.604
    0MOL    Si  2777   1.877   4.186   1.566
    0MOL    Si  2778   1.618   4.286   1.696
    0MOL    O   2779   0.002   4.086   2.363
    0MOL    O   2780   1.783   4.094   2.233
    0MOL    O   2781   1.807   4.217   2.464
    0MOL    O   2782   1.802   3.954   2.454
    0MOL    O   2783   1.666   4.024   2.008
    0MOL    O   2784   1.667   5.834   2.214
    0MOL    O   2785   1.521   4.079   2.220
    0MOL    O   2786   1.589   4.203   1.832
    0MOL    O   2787   1.413   4.037   1.935
    0MOL    O   2788   1.594   3.950   1.766
    0MOL    O   2789   1.221   4.197   1.855
    0MOL    O   2790   1.175   4.021   2.044
    0MOL    O   2791   1.266   4.102   2.277
    0MOL    O   2792   1.151   5.840   2.256
    0MOL    O   2793   1.447   4.207   2.437
    0MOL    O   2794   1.991   5.635   2.343
    0MOL    O   2795   1.744   5.588   2.268
    0MOL    O   2796   1.651   5.647   2.029
    0MOL    O   2797   1.489   5.642   2.235
    0MOL    O   2798   1.402   5.588   1.971
    0MOL    O   2799   1.167   5.659   2.067
    0MOL    O   2800   1.241   5.600   2.312
    0MOL    Si  2801   1.851   4.088   2.379
    0MOL    Si  2802   1.659   4.014   2.168
    0MOL    Si  2803   1.565   4.053   1.885
    0MOL    Si  2804   1.255   4.049   1.908
    0MOL    Si  2805   1.149   4.019   2.204
    0MOL    Si  2806   1.413   4.083   2.340
    0MOL    Si  2807   1.847   5.581   2.391
    0MOL    Si  2808   1.638   5.678   2.187
    0MOL    Si  2809   1.554   5.581   1.918
    0MOL    Si  2810   1.243   5.582   1.947
    0MOL    Si  2811   1.136   5.683   2.223
    0MOL    Si  2812   1.396   5.583   2.354
    0MOL    O   2813   2.007   5.072   1.579
    0MOL    O   2814   0.226   5.081   1.709
    0MOL    O   2815   0.202   5.204   1.479
    0MOL    O   2816   0.207   4.941   1.489
    0MOL    O   2817   0.343   5.011   1.935
    0MOL    O   2818   0.342   4.847   1.729
    0MOL    O   2819   0.488   5.065   1.722
    0MOL    O   2820   0.420   5.190   2.111
    0MOL    O   2821   0.596   5.024   2.007
    0MOL    O   2822   0.415   4.937   2.177
    0MOL    O   2823   0.789   5.184   2.087
    0MOL    O   2824   0.835   5.008   1.898
    0MOL    O   2825   0.743   5.089   1.665
    0MOL    O   2826   0.858   4.853   1.686
    0MOL    O   2827   0.562   5.194   1.506
    0MOL    O   2828   0.018   4.648   1.599
    0MOL    O   2829   0.265   4.601   1.675
    0MOL    O   2830   0.358   4.660   1.914
    0MOL    O   2831   0.520   4.655   1.707
    0MOL    O   2832   0.607   4.602   1.972
    0MOL    O   2833   0.842   4.672   1.876
    0MOL    O   2834   0.768   4.613   1.630
    0MOL    Si  2835   0.158   5.075   1.564
    0MOL    Si  2836   0.350   5.001   1.774
    0MOL    Si  2837   0.444   5.040   2.057
    0MOL    Si  2838   0.754   5.036   2.034
    0MOL    Si  2839   0.860   5.006   1.739
    0MOL    Si  2840   0.596   5.070   1.603
    0MOL    Si  2841   0.162   4.594   1.551
    0MOL    Si  2842   0.371   4.691   1.756
    0MOL    Si  2843   0.455   4.595   2.024
    0MOL    Si  2844   0.766   4.595   1.995
    0MOL    Si  2845   0.873   4.697   1.720
    0MOL    Si  2846   0.613   4.597   1.589
    0MOL    O   2847   1.007   4.797   2.237
    0MOL    O   2848   0.778   4.788   2.367
    0MOL    O   2849   0.803   4.665   2.136
    0MOL    O   2850   0.798   4.928   2.146
    0MOL    O   2851   0.661   4.858   2.592
    0MOL    O   2852   0.662   5.022   2.386
    0MOL    O   2853   0.517   4.804   2.380
    0MOL    O   2854   0.585   4.679   1.454
    0MOL    O   2855   0.409   4.845   1.350
    0MOL    O   2856   0.590   4.933   1.520
    0MOL    O   2857   0.216   4.685   1.430
    0MOL    O   2858   0.170   4.862   2.555
    0MOL    O   2859   0.261   4.780   2.322
    0MOL    O   2860   0.146   5.016   2.343
    0MOL    O   2861   0.442   4.675   2.163
    0MOL    O   2862   0.987   5.221   2.256
    0MOL    O   2863   0.740   5.268   2.332
    0MOL    O   2864   0.646   5.209   2.571
    0MOL    O   2865   0.484   5.214   2.364
    0MOL    O   2866   0.397   5.268   1.315
    0MOL    O   2867   0.163   5.197   2.533
    0MOL    O   2868   0.237   5.256   2.288
    0MOL    Si  2869   0.847   4.794   2.221
    0MOL    Si  2870   0.655   4.868   2.431
    0MOL    Si  2871   0.561   4.829   1.400
    0MOL    Si  2872   0.250   4.833   1.377
    0MOL    Si  2873   0.145   4.863   2.396
    0MOL    Si  2874   0.409   4.799   2.260
    0MOL    Si  2875   0.843   5.275   2.208
    0MOL    Si  2876   0.633   5.178   2.413
    0MOL    Si  2877   0.549   5.274   1.367
    0MOL    Si  2878   0.238   5.274   1.338
    0MOL    Si  2879   0.132   5.172   2.377
    0MOL    Si  2880   0.391   5.272   2.246
    0MOL    O   2881   1.007   4.086   3.551
    0MOL    O   2882   0.778   4.094   3.681
    0MOL    O   2883   0.803   4.217   3.450
    0MOL    O   2884   0.798   3.954   3.460
    0MOL    O   2885   0.661   4.024   3.906
    0MOL    O   2886   0.662   5.834   3.700
    0MOL    O   2887   0.517   4.079   3.694
    0MOL    O   2888   0.585   4.203   2.768
    0MOL    O   2889   0.409   4.037   2.665
    0MOL    O   2890   0.590   3.950   2.834
    0MOL    O   2891   0.216   4.197   2.744
    0MOL    O   2892   0.170   4.021   3.869
    0MOL    O   2893   0.261   4.102   3.636
    0MOL    O   2894   0.146   5.840   3.658
    0MOL    O   2895   0.442   4.207   3.477
    0MOL    O   2896   0.987   5.635   3.571
    0MOL    O   2897   0.740   5.588   3.646
    0MOL    O   2898   0.856   5.428   3.474
    0MOL    O   2899   0.646   5.647   3.885
    0MOL    O   2900   0.484   5.642   3.678
    0MOL    O   2901   0.591   5.428   2.705
    0MOL    O   2902   0.397   5.588   2.629
    0MOL    O   2903   0.190   5.428   2.655
    0MOL    O   2904   0.163   5.659   3.847
    0MOL    O   2905   0.237   5.600   3.602
    0MOL    O   2906   0.425   5.428   3.537
    0MOL    Si  2907   0.847   4.088   3.535
    0MOL    Si  2908   0.655   4.014   3.746
    0MOL    Si  2909   0.561   4.053   2.715
    0MOL    Si  2910   0.250   4.049   2.692
    0MOL    Si  2911   0.145   4.019   3.710
    0MOL    Si  2912   0.409   4.083   3.574
    0MOL    Si  2913   0.843   5.581   3.523
    0MOL    Si  2914   0.633   5.678   3.727
    0MOL    Si  2915   0.549   5.581   2.681
    0MOL    Si  2916   0.238   5.582   2.652
    0MOL    Si  2917   0.132   5.683   3.691
    0MOL    Si  2918   0.391   5.583   3.560
    0MOL    O   2919   2.007   5.783   2.894
    0MOL    O   2920   0.226   5.775   3.024
    0MOL    O   2921   0.202   5.652   2.793
    0MOL    O   2922   0.207   5.915   2.803
    0MOL    O   2923   0.343   5.845   3.249
    0MOL    O   2924   0.342   4.035   3.043
    0MOL    O   2925   0.488   5.790   3.037
    0MOL    O   2926   0.420   5.666   3.425
    0MOL    O   2927   0.596   5.832   3.322
    0MOL    O   2928   0.415   5.919   3.491
    0MOL    O   2929   0.789   5.672   3.401
    0MOL    O   2930   0.835   5.848   3.212
    0MOL    O   2931   0.743   5.767   2.979
    0MOL    O   2932   0.858   4.029   3.001
    0MOL    O   2933   0.562   5.662   2.820
    0MOL    O   2934   0.018   4.234   2.913
    0MOL    O   2935   0.265   4.281   2.989
    0MOL    O   2936   0.148   4.441   2.817
    0MOL    O   2937   0.358   4.222   3.228
    0MOL    O   2938   0.520   4.228   3.021
    0MOL    O   2939   0.413   4.441   3.362
    0MOL    O   2940   0.607   4.281   3.286
    0MOL    O   2941   0.814   4.441   3.312
    0MOL    O   2942   0.842   4.210   3.190
    0MOL    O   2943   0.768   4.269   2.945
    0MOL    O   2944   0.579   4.441   2.880
    0MOL    Si  2945   0.158   5.781   2.878
    0MOL    Si  2946   0.350   5.855   3.088
    0MOL    Si  2947   0.444   5.816   3.372
    0MOL    Si  2948   0.754   5.820   3.349
    0MOL    Si  2949   0.860   5.850   3.053
    0MOL    Si  2950   0.596   5.786   2.917
    0MOL    Si  2951   0.162   4.288   2.866
    0MOL    Si  2952   0.371   4.191   3.070
    0MOL    Si  2953   0.455   4.288   3.338
    0MOL    Si  2954   0.766   4.287   3.310
    0MOL    Si  2955   0.873   4.186   3.034
    0MOL    Si  2956   0.613   4.286   2.903
    0MOL    O   2957   0.002   4.797   3.677
    0MOL    O   2958   1.783   4.788   3.547
    0MOL    O   2959   1.807   4.665   3.778
    0MOL    O   2960   1.802   4.928   3.768
    0MOL    O   2961   1.666   4.858   3.322
    0MOL    O   2962   1.667   5.022   3.528
    0MOL    O   2963   1.521   4.804   3.534
    0MOL    O   2964   1.589   4.679   3.146
    0MOL    O   2965   1.413   4.845   3.249
    0MOL    O   2966   1.594   4.933   3.080
    0MOL    O   2967   1.221   4.685   3.170
    0MOL    O   2968   1.175   4.862   3.359
    0MOL    O   2969   1.266   4.780   3.592
    0MOL    O   2970   1.151   5.016   3.570
    0MOL    O   2971   1.447   4.675   3.751
    0MOL    O   2972   1.991   5.221   3.658
    0MOL    O   2973   1.744   5.268   3.582
    0MOL    O   2974   1.861   5.428   3.754
    0MOL    O   2975   1.651   5.209   3.343
    0MOL    O   2976   1.489   5.214   3.550
    0MOL    O   2977   1.596   5.428   3.209
    0MOL    O   2978   1.402   5.268   3.285
    0MOL    O   2979   1.195   5.428   3.259
    0MOL    O   2980   1.167   5.197   3.381
    0MOL    O   2981   1.241   5.256   3.626
    0MOL    O   2982   1.430   5.428   3.691
    0MOL    Si  2983   1.851   4.794   3.693
    0MOL    Si  2984   1.659   4.868   3.483
    0MOL    Si  2985   1.565   4.829   3.199
    0MOL    Si  2986   1.255   4.833   3.222
    0MOL    Si  2987   1.149   4.863   3.518
    0MOL    Si  2988   1.413   4.799   3.654
    0MOL    Si  2989   1.847   5.275   3.705
    0MOL    Si  2990   1.638   5.178   3.501
    0MOL    Si  2991   1.554   5.274   3.233
    0MOL    Si  2992   1.243   5.274   3.262
    0MOL    Si  2993   1.136   5.172   3.537
    0MOL    Si  2994   1.396   5.272   3.668
    0MOL    O   2995   1.002   5.072   3.020
    0MOL    O   2996   1.231   5.081   2.890
    0MOL    O   2997   1.206   5.204   3.121
    0MOL    O   2998   1.211   4.941   3.111
    0MOL    O   2999   1.348   5.011   2.665
    0MOL    O   3000   1.347   4.847   2.871
    0MOL    O   3001   1.493   5.065   2.877
    0MOL    O   3002   1.424   5.190   3.803
    0MOL    O   3003   1.600   5.024   3.906
    0MOL    O   3004   1.419   4.937   3.737
    0MOL    O   3005   1.793   5.184   3.827
    0MOL    O   3006   1.839   5.008   2.702
    0MOL    O   3007   1.748   5.089   2.935
    0MOL    O   3008   1.863   4.853   2.913
    0MOL    O   3009   1.567   5.194   3.094
    0MOL    O   3010   1.022   4.648   3.000
    0MOL    O   3011   1.269   4.601   2.925
    0MOL    O   3012   1.153   4.441   3.097
    0MOL    O   3013   1.363   4.660   2.686
    0MOL    O   3014   1.525   4.655   2.893
    0MOL    O   3015   1.418   4.441   3.867
    0MOL    O   3016   1.612   4.602   3.942
    0MOL    O   3017   1.818   4.441   3.916
    0MOL    O   3018   1.847   4.672   2.724
    0MOL    O   3019   1.773   4.613   2.969
    0MOL    O   3020   1.584   4.441   3.034
    0MOL    Si  3021   1.162   5.075   3.036
    0MOL    Si  3022   1.354   5.001   2.825
    0MOL    Si  3023   1.448   5.040   3.856
    0MOL    Si  3024   1.759   5.036   3.879
    0MOL    Si  3025   1.864   5.006   2.861
    0MOL    Si  3026   1.600   5.070   2.997
    0MOL    Si  3027   1.166   4.594   3.048
    0MOL    Si  3028   1.376   4.691   2.844
    0MOL    Si  3029   1.460   4.595   3.890
    0MOL    Si  3030   1.771   4.595   3.919
    0MOL    Si  3031   1.877   4.697   2.880
    0MOL    Si  3032   1.618   4.597   3.011
    0MOL    O   3033   1.002   5.783   3.020
    0MOL    O   3034   1.231   5.775   2.890
    0MOL    O   3035   1.206   5.652   3.121
    0MOL    O   3036   1.211   5.915   3.111
    0MOL    O   3037   1.348   5.845   2.665
    0MOL    O   3038   1.347   4.035   2.871
    0MOL    O   3039   1.493   5.790   2.877
    0MOL    O   3040   1.424   5.666   3.803
    0MOL    O   3041   1.600   5.832   3.906
    0MOL    O   3042   1.419   5.919   3.737
    0MOL    O   3043   1.793   5.672   3.827
    0MOL    O   3044   1.839   5.848   2.702
    0MOL    O   3045   1.748   5.767   2.935
    0MOL    O   3046   1.863   4.029   2.913
    0MOL    O   3047   1.567   5.662   3.094
    0MOL    O   3048   1.022   4.234   3.000
    0MOL    O   3049   1.269   4.281   2.925
    0MOL    O   3050   1.363   4.222   2.686
    0MOL    O   3051   1.525   4.228   2.893
    0MOL    O   3052   1.612   4.281   3.942
    0MOL    O   3053   1.847   4.210   2.724
    0MOL    O   3054   1.773   4.269   2.969
    0MOL    Si  3055   1.162   5.781   3.036
    0MOL    Si  3056   1.354   5.855   2.825
    0MOL    Si  3057   1.448   5.816   3.856
    0MOL    Si  3058   1.759   5.820   3.879
    0MOL    Si  3059   1.864   5.850   2.861
    0MOL    Si  3060   1.600   5.786   2.997
    0MOL    Si  3061   1.166   4.288   3.048
    0MOL    Si  3062   1.376   4.191   2.844
    0MOL    Si  3063   1.460   4.288   3.890
    0MOL    Si  3064   1.771   4.287   3.919
    0MOL    Si  3065   1.877   4.186   2.880
    0MOL    Si  3066   1.618   4.286   3.011
    0MOL    O   3067   0.002   4.086   3.677
    0MOL    O   3068   1.783   4.094   3.547
    0MOL    O   3069   1.807   4.217   3.778
    0MOL    O   3070   1.802   3.954   3.768
    0MOL    O   3071   1.666   4.024   3.322
    0MOL    O   3072   1.667   5.834   3.528
    0MOL    O   3073   1.521   4.079   3.534
    0MOL    O   3074   1.589   4.203   3.146
    0MOL    O   3075   1.413   4.037   3.249
    0MOL    O   3076   1.594   3.950   3.080
    0MOL    O   3077   1.221   4.197   3.170
    0MOL    O   3078   1.175   4.021   3.359
    0MOL    O   3079   1.266   4.102   3.592
    0MOL    O   3080   1.151   5.840   3.570
    0MOL    O   3081   1.447   4.207   3.751
    0MOL    O   3082   1.991   5.635   3.658
    0MOL    O   3083   1.744   5.588   3.582
    0MOL    O   3084   1.651   5.647   3.343
    0MOL    O   3085   1.489   5.642   3.550
    0MOL    O   3086   1.402   5.588   3.285
    0MOL    O   3087   1.167   5.659   3.381
    0MOL    O   3088   1.241   5.600   3.626
    0MOL    Si  3089   1.851   4.088   3.693
    0MOL    Si  3090   1.659   4.014   3.483
    0MOL    Si  3091   1.565   4.053   3.199
    0MOL    Si  3092   1.255   4.049   3.222
    0MOL    Si  3093   1.149   4.019   3.518
    0MOL    Si  3094   1.413   4.083   3.654
    0MOL    Si  3095   1.847   5.581   3.705
    0MOL    Si  3096   1.638   5.678   3.501
    0MOL    Si  3097   1.554   5.581   3.233
    0MOL    Si  3098   1.243   5.582   3.262
    0MOL    Si  3099   1.136   5.683   3.537
    0MOL    Si  3100   1.396   5.583   3.668
    0MOL    O   3101   2.007   5.072   2.894
    0MOL    O   3102   0.226   5.081   3.024
    0MOL    O   3103   0.202   5.204   2.793
    0MOL    O   3104   0.207   4.941   2.803
    0MOL    O   3105   0.343   5.011   3.249
    0MOL    O   3106   0.342   4.847   3.043
    0MOL    O   3107   0.488   5.065   3.037
    0MOL    O   3108   0.420   5.190   3.425
    0MOL    O   3109   0.596   5.024   3.322
    0MOL    O   3110   0.415   4.937   3.491
    0MOL    O   3111   0.789   5.184   3.401
    0MOL    O   3112   0.835   5.008   3.212
    0MOL    O   3113   0.743   5.089   2.979
    0MOL    O   3114   0.858   4.853   3.001
    0MOL    O   3115   0.562   5.194   2.820
    0MOL    O   3116   0.018   4.648   2.913
    0MOL    O   3117   0.265   4.601   2.989
    0MOL    O   3118   0.358   4.660   3.228
    0MOL    O   3119   0.520   4.655   3.021
    0MOL    O   3120   0.607   4.602   3.286
    0MOL    O   3121   0.842   4.672   3.190
    0MOL    O   3122   0.768   4.613   2.945
    0MOL    Si  3123   0.158   5.075   2.878
    0MOL    Si  3124   0.350   5.001   3.088
    0MOL    Si  3125   0.444   5.040   3.372
    0MOL    Si  3126   0.754   5.036   3.349
    0MOL    Si  3127   0.860   5.006   3.053
    0MOL    Si  3128   0.596   5.070   2.917
    0MOL    Si  3129   0.162   4.594   2.866
    0MOL    Si  3130   0.371   4.691   3.070
    0MOL    Si  3131   0.455   4.595   3.338
    0MOL    Si  3132   0.766   4.595   3.310
    0MOL    Si  3133   0.873   4.697   3.034
    0MOL    Si  3134   0.613   4.597   2.903
    0MOL    O   3135   1.007   4.797   3.551
    0MOL    O   3136   0.778   4.788   3.681
    0MOL    O   3137   0.803   4.665   3.450
    0MOL    O   3138   0.798   4.928   3.460
    0MOL    O   3139   0.661   4.858   3.906
    0MOL    O   3140   0.662   5.022   3.700
    0MOL    O   3141   0.517   4.804   3.694
    0MOL    O   3142   0.585   4.679   2.768
    0MOL    O   3143   0.409   4.845   2.665
    0MOL    O   3144   0.590   4.933   2.834
    0MOL    O   3145   0.216   4.685   2.744
    0MOL    O   3146   0.170   4.862   3.869
    0MOL    O   3147   0.261   4.780   3.636
    0MOL    O   3148   0.146   5.016   3.658
    0MOL    O   3149   0.442   4.675   3.477
    0MOL    O   3150   0.987   5.221   3.571
    0MOL    O   3151   0.740   5.268   3.646
    0MOL    O   3152   0.646   5.209   3.885
    0MOL    O   3153   0.484   5.214   3.678
    0MOL    O   3154   0.397   5.268   2.629
    0MOL    O   3155   0.163   5.197   3.847
    0MOL    O   3156   0.237   5.256   3.602
    0MOL    Si  3157   0.847   4.794   3.535
    0MOL    Si  3158   0.655   4.868   3.746
    0MOL    Si  3159   0.561   4.829   2.715
    0MOL    Si  3160   0.250   4.833   2.692
    0MOL    Si  3161   0.145   4.863   3.710
    0MOL    Si  3162   0.409   4.799   3.574
    0MOL    Si  3163   0.843   5.275   3.523
    0MOL    Si  3164   0.633   5.178   3.727
    0MOL    Si  3165   0.549   5.274   2.681
    0MOL    Si  3166   0.238   5.274   2.652
    0MOL    Si  3167   0.132   5.172   3.691
    0MOL    Si  3168   0.391   5.272   3.560
    0MOL    O   3169   1.007   4.086   4.865
    0MOL    O   3170   0.778   4.094   4.995
    0MOL    O   3171   0.803   4.217   4.764
    0MOL    O   3172   0.798   3.954   4.774
    0MOL    O   3173   0.661   4.024   5.220
    0MOL    O   3174   0.662   5.834   5.014
    0MOL    O   3175   0.517   4.079   5.008
    0MOL    O   3176   0.585   4.203   4.082
    0MOL    O   3177   0.409   4.037   3.979
    0MOL    O   3178   0.590   3.950   4.148
    0MOL    O   3179   0.216   4.197   4.059
    0MOL    O   3180   0.170   4.021   5.184
    0MOL    O   3181   0.261   4.102   4.951
    0MOL    O   3182   0.146   5.840   4.972
    0MOL    O   3183   0.442   4.207   4.791
    0MOL    O   3184   0.987   5.635   4.885
    0MOL    O   3185   0.740   5.588   4.960
    0MOL    O   3186   0.856   5.428   4.788
    0MOL    O   3187   0.646   5.647   5.199
    0MOL    O   3188   0.484   5.642   4.993
    0MOL    O   3189   0.591   5.428   4.019
    0MOL    O   3190   0.397   5.588   3.943
    0MOL    O   3191   0.190   5.428   3.970
    0MOL    O   3192   0.163   5.659   5.162
    0MOL    O   3193   0.237   5.600   4.916
    0MOL    O   3194   0.425   5.428   4.851
    0MOL    Si  3195   0.847   4.088   4.849
    0MOL    Si  3196   0.655   4.014   5.060
    0MOL    Si  3197   0.561   4.053   4.029
    0MOL    Si  3198   0.250   4.049   4.006
    0MOL    Si  3199   0.145   4.019   5.025
    0MOL    Si  3200   0.409   4.083   4.888
    0MOL    Si  3201   0.843   5.581   4.837
    0MOL    Si  3202   0.633   5.678   5.041
    0MOL    Si  3203   0.549   5.581   3.995
    0MOL    Si  3204   0.238   5.582   3.967
    0MOL    Si  3205   0.132   5.683   5.005
    0MOL    Si  3206   0.391   5.583   4.875
    0MOL    O   3207   2.007   5.783   4.208
    0MOL    O   3208   0.226   5.775   4.338
    0MOL    O   3209   0.202   5.652   4.107
    0MOL    O   3210   0.207   5.915   4.117
    0MOL    O   3211   0.343   5.845   4.563
    0MOL    O   3212   0.342   4.035   4.357
    0MOL    O   3213   0.488   5.790   4.351
    0MOL    O   3214   0.420   5.666   4.739
    0MOL    O   3215   0.596   5.832   4.636
    0MOL    O   3216   0.415   5.919   4.805
    0MOL    O   3217   0.789   5.672   4.716
    0MOL    O   3218   0.835   5.848   4.527
    0MOL    O   3219   0.743   5.767   4.294
    0MOL    O   3220   0.858   4.029   4.315
    0MOL    O   3221   0.562   5.662   4.134
    0MOL    O   3222   0.018   4.234   4.228
    0MOL    O   3223   0.265   4.281   4.303
    0MOL    O   3224   0.148   4.441   4.131
    0MOL    O   3225   0.358   4.222   4.542
    0MOL    O   3226   0.520   4.228   4.336
    0MOL    O   3227   0.413   4.441   4.676
    0MOL    O   3228   0.607   4.281   4.600
    0MOL    O   3229   0.814   4.441   4.627
    0MOL    O   3230   0.842   4.210   4.504
    0MOL    O   3231   0.768   4.269   4.259
    0MOL    O   3232   0.579   4.441   4.194
    0MOL    Si  3233   0.158   5.781   4.192
    0MOL    Si  3234   0.350   5.855   4.403
    0MOL    Si  3235   0.444   5.816   4.686
    0MOL    Si  3236   0.754   5.820   4.663
    0MOL    Si  3237   0.860   5.850   4.367
    0MOL    Si  3238   0.596   5.786   4.231
    0MOL    Si  3239   0.162   4.288   4.180
    0MOL    Si  3240   0.371   4.191   4.384
    0MOL    Si  3241   0.455   4.288   4.653
    0MOL    Si  3242   0.766   4.287   4.624
    0MOL    Si  3243   0.873   4.186   4.348
    0MOL    Si  3244   0.613   4.286   4.217
    0MOL    O   3245   0.002   4.797   4.992
    0MOL    O   3246   1.783   4.788   4.862
    0MOL    O   3247   1.807   4.665   5.092
    0MOL    O   3248   1.802   4.928   5.083
    0MOL    O   3249   1.666   4.858   4.636
    0MOL    O   3250   1.667   5.022   4.842
    0MOL    O   3251   1.521   4.804   4.849
    0MOL    O   3252   1.589   4.679   4.460
    0MOL    O   3253   1.413   4.845   4.564
    0MOL    O   3254   1.594   4.933   4.394
    0MOL    O   3255   1.221   4.685   4.484
    0MOL    O   3256   1.175   4.862   4.673
    0MOL    O   3257   1.266   4.780   4.906
    0MOL    O   3258   1.151   5.016   4.885
    0MOL    O   3259   1.447   4.675   5.065
    0MOL    O   3260   1.991   5.221   4.972
    0MOL    O   3261   1.744   5.268   4.896
    0MOL    O   3262   1.861   5.428   5.069
    0MOL    O   3263   1.651   5.209   4.657
    0MOL    O   3264   1.489   5.214   4.864
    0MOL    O   3265   1.596   5.428   4.524
    0MOL    O   3266   1.402   5.268   4.599
    0MOL    O   3267   1.195   5.428   4.573
    0MOL    O   3268   1.167   5.197   4.695
    0MOL    O   3269   1.241   5.256   4.941
    0MOL    O   3270   1.430   5.428   5.005
    0MOL    Si  3271   1.851   4.794   5.007
    0MOL    Si  3272   1.659   4.868   4.797
    0MOL    Si  3273   1.565   4.829   4.514
    0MOL    Si  3274   1.255   4.833   4.537
    0MOL    Si  3275   1.149   4.863   4.832
    0MOL    Si  3276   1.413   4.799   4.968
    0MOL    Si  3277   1.847   5.275   5.020
    0MOL    Si  3278   1.638   5.178   4.815
    0MOL    Si  3279   1.554   5.274   4.547
    0MOL    Si  3280   1.243   5.274   4.576
    0MOL    Si  3281   1.136   5.172   4.851
    0MOL    Si  3282   1.396   5.272   4.982
    0MOL    O   3283   1.002   5.072   4.335
    0MOL    O   3284   1.231   5.081   4.204
    0MOL    O   3285   1.206   5.204   4.435
    0MOL    O   3286   1.211   4.941   4.425
    0MOL    O   3287   1.348   5.011   3.979
    0MOL    O   3288   1.347   4.847   4.185
    0MOL    O   3289   1.493   5.065   4.192
    0MOL    O   3290   1.424   5.190   5.117
    0MOL    O   3291   1.600   5.024   5.221
    0MOL    O   3292   1.419   4.937   5.051
    0MOL    O   3293   1.793   5.184   5.141
    0MOL    O   3294   1.839   5.008   4.016
    0MOL    O   3295   1.748   5.089   4.249
    0MOL    O   3296   1.863   4.853   4.228
    0MOL    O   3297   1.567   5.194   4.408
    0MOL    O   3298   1.022   4.648   4.315
    0MOL    O   3299   1.269   4.601   4.239
    0MOL    O   3300   1.153   4.441   4.412
    0MOL    O   3301   1.363   4.660   4.000
    0MOL    O   3302   1.525   4.655   4.207
    0MOL    O   3303   1.418   4.441   5.181
    0MOL    O   3304   1.612   4.602   5.256
    0MOL    O   3305   1.818   4.441   5.230
    0MOL    O   3306   1.847   4.672   4.038
    0MOL    O   3307   1.773   4.613   4.283
    0MOL    O   3308   1.584   4.441   4.348
    0MOL    Si  3309   1.162   5.075   4.350
    0MOL    Si  3310   1.354   5.001   4.140
    0MOL    Si  3311   1.448   5.040   5.171
    0MOL    Si  3312   1.759   5.036   5.194
    0MOL    Si  3313   1.864   5.006   4.175
    0MOL    Si  3314   1.600   5.070   4.311
    0MOL    Si  3315   1.166   4.594   4.363
    0MOL    Si  3316   1.376   4.691   4.158
    0MOL    Si  3317   1.460   4.595   5.204
    0MOL    Si  3318   1.771   4.595   5.233
    0MOL    Si  3319   1.877   4.697   4.194
    0MOL    Si  3320   1.618   4.597   4.325
    0MOL    O   3321   1.002   5.783   4.335
    0MOL    O   3322   1.231   5.775   4.204
    0MOL    O   3323   1.206   5.652   4.435
    0MOL    O   3324   1.211   5.915   4.425
    0MOL    O   3325   1.348   5.845   3.979
    0MOL    O   3326   1.347   4.035   4.185
    0MOL    O   3327   1.493   5.790   4.192
    0MOL    O   3328   1.424   5.666   5.117
    0MOL    O   3329   1.600   5.832   5.221
    0MOL    O   3330   1.419   5.919   5.051
    0MOL    O   3331   1.793   5.672   5.141
    0MOL    O   3332   1.839   5.848   4.016
    0MOL    O   3333   1.748   5.767   4.249
    0MOL    O   3334   1.863   4.029   4.228
    0MOL    O   3335   1.567   5.662   4.408
    0MOL    O   3336   1.022   4.234   4.315
    0MOL    O   3337   1.269   4.281   4.239
    0MOL    O   3338   1.363   4.222   4.000
    0MOL    O   3339   1.525   4.228   4.207
    0MOL    O   3340   1.612   4.281   5.256
    0MOL    O   3341   1.847   4.210   4.038
    0MOL    O   3342   1.773   4.269   4.283
    0MOL    Si  3343   1.162   5.781   4.350
    0MOL    Si  3344   1.354   5.855   4.140
    0MOL    Si  3345   1.448   5.816   5.171
    0MOL    Si  3346   1.759   5.820   5.194
    0MOL    Si  3347   1.864   5.850   4.175
    0MOL    Si  3348   1.600   5.786   4.311
    0MOL    Si  3349   1.166   4.288   4.363
    0MOL    Si  3350   1.376   4.191   4.158
    0MOL    Si  3351   1.460   4.288   5.204
    0MOL    Si  3352   1.771   4.287   5.233
    0MOL    Si  3353   1.877   4.186   4.194
    0MOL    Si  3354   1.618   4.286   4.325
    0MOL    O   3355   0.002   4.086   4.992
    0MOL    O   3356   1.783   4.094   4.862
    0MOL    O   3357   1.807   4.217   5.092
    0MOL    O   3358   1.802   3.954   5.083
    0MOL    O   3359   1.666   4.024   4.636
    0MOL    O   3360   1.667   5.834   4.842
    0MOL    O   3361   1.521   4.079   4.849
    0MOL    O   3362   1.589   4.203   4.460
    0MOL    O   3363   1.413   4.037   4.564
    0MOL    O   3364   1.594   3.950   4.394
    0MOL    O   3365   1.221   4.197   4.484
    0MOL    O   3366   1.175   4.021   4.673
    0MOL    O   3367   1.266   4.102   4.906
    0MOL    O   3368   1.151   5.840   4.885
    0MOL    O   3369   1.447   4.207   5.065
    0MOL    O   3370   1.991   5.635   4.972
    0MOL    O   3371   1.744   5.588   4.896
    0MOL    O   3372   1.651   5.647   4.657
    0MOL    O   3373   1.489   5.642   4.864
    0MOL    O   3374   1.402   5.588   4.599
    0MOL    O   3375   1.167   5.659   4.695
    0MOL    O   3376   1.241   5.600   4.941
    0MOL    Si  3377   1.851   4.088   5.007
    0MOL    Si  3378   1.659   4.014   4.797
    0MOL    Si  3379   1.565   4.053   4.514
    0MOL    Si  3380   1.255   4.049   4.537
    0MOL    Si  3381   1.149   4.019   4.832
    0MOL    Si  3382   1.413   4.083   4.968
    0MOL    Si  3383   1.847   5.581   5.020
    0MOL    Si  3384   1.638   5.678   4.815
    0MOL    Si  3385   1.554   5.581   4.547
    0MOL    Si  3386   1.243   5.582   4.576
    0MOL    Si  3387   1.136   5.683   4.851
    0MOL    Si  3388   1.396   5.583   4.982
    0MOL    O   3389   2.007   5.072   4.208
    0MOL    O   3390   0.226   5.081   4.338
    0MOL    O   3391   0.202   5.204   4.107
    0MOL    O   3392   0.207   4.941   4.117
    0MOL    O   3393   0.343   5.011   4.563
    0MOL    O   3394   0.342   4.847   4.357
    0MOL    O   3395   0.488   5.065   4.351
    0MOL    O   3396   0.420   5.190   4.739
    0MOL    O   3397   0.596   5.024   4.636
    0MOL    O   3398   0.415   4.937   4.805
    0MOL    O   3399   0.789   5.184   4.716
    0MOL    O   3400   0.835   5.008   4.527
    0MOL    O   3401   0.743   5.089   4.294
    0MOL    O   3402   0.858   4.853   4.315
    0MOL    O   3403   0.562   5.194   4.134
    0MOL    O   3404   0.018   4.648   4.228
    0MOL    O   3405   0.265   4.601   4.303
    0MOL    O   3406   0.358   4.660   4.542
    0MOL    O   3407   0.520   4.655   4.336
    0MOL    O   3408   0.607   4.602   4.600
    0MOL    O   3409   0.842   4.672   4.504
    0MOL    O   3410   0.768   4.613   4.259
    0MOL    Si  3411   0.158   5.075   4.192
    0MOL    Si  3412   0.350   5.001   4.403
    0MOL    Si  3413   0.444   5.040   4.686
    0MOL    Si  3414   0.754   5.036   4.663
    0MOL    Si  3415   0.860   5.006   4.367
    0MOL    Si  3416   0.596   5.070   4.231
    0MOL    Si  3417   0.162   4.594   4.180
    0MOL    Si  3418   0.371   4.691   4.384
    0MOL    Si  3419   0.455   4.595   4.653
    0MOL    Si  3420   0.766   4.595   4.624
    0MOL    Si  3421   0.873   4.697   4.348
    0MOL    Si  3422   0.613   4.597   4.217
    0MOL    O   3423   1.007   4.797   4.865
    0MOL    O   3424   0.778   4.788   4.995
    0MOL    O   3425   0.803   4.665   4.764
    0MOL    O   3426   0.798   4.928   4.774
    0MOL    O   3427   0.661   4.858   5.220
    0MOL    O   3428   0.662   5.022   5.014
    0MOL    O   3429   0.517   4.804   5.008
    0MOL    O   3430   0.585   4.679   4.082
    0MOL    O   3431   0.409   4.845   3.979
    0MOL    O   3432   0.590   4.933   4.148
    0MOL    O   3433   0.216   4.685   4.059
    0MOL    O   3434   0.170   4.862   5.184
    0MOL    O   3435   0.261   4.780   4.951
    0MOL    O   3436   0.146   5.016   4.972
    0MOL    O   3437   0.442   4.675   4.791
    0MOL    O   3438   0.987   5.221   4.885
    0MOL    O   3439   0.740   5.268   4.960
    0MOL    O   3440   0.646   5.209   5.199
    0MOL    O   3441   0.484   5.214   4.993
    0MOL    O   3442   0.397   5.268   3.943
    0MOL    O   3443   0.163   5.197   5.162
    0MOL    O   3444   0.237   5.256   4.916
    0MOL    Si  3445   0.847   4.794   4.849
    0MOL    Si  3446   0.655   4.868   5.060
    0MOL    Si  3447   0.561   4.829   4.029
    0MOL    Si  3448   0.250   4.833   4.006
    0MOL    Si  3449   0.145   4.863   5.025
    0MOL    Si  3450   0.409   4.799   4.888
    0MOL    Si  3451   0.843   5.275   4.837
    0MOL    Si  3452   0.633   5.178   5.041
    0MOL    Si  3453   0.549   5.274   3.995
    0MOL    Si  3454   0.238   5.274   3.967
    0MOL    Si  3455   0.132   5.172   5.005
    0MOL    Si  3456   0.391   5.272   4.875
    0MOL    O   3457   3.016   0.138   0.922
    0MOL    O   3458   2.788   0.147   1.052
    0MOL    O   3459   2.812   0.270   0.822
    0MOL    O   3460   2.807   0.007   0.831
    0MOL    O   3461   2.670   0.076   1.278
    0MOL    O   3462   2.671   1.886   1.072
    0MOL    O   3463   2.525   0.131   1.065
    0MOL    O   3464   2.594   0.256   0.139
    0MOL    O   3465   2.418   0.090   0.036
    0MOL    O   3466   2.599   0.002   0.206
    0MOL    O   3467   2.225   0.250   0.116
    0MOL    O   3468   2.179   0.073   1.241
    0MOL    O   3469   2.270   0.154   1.008
    0MOL    O   3470   2.155   1.893   1.029
    0MOL    O   3471   2.451   0.259   0.848
    0MOL    O   3472   2.996   1.687   0.942
    0MOL    O   3473   2.749   1.640   1.018
    0MOL    O   3474   2.865   1.480   0.845
    0MOL    O   3475   2.655   1.700   1.256
    0MOL    O   3476   2.493   1.694   1.050
    0MOL    O   3477   2.600   1.480   0.076
    0MOL    O   3478   2.406   1.641   0.000
    0MOL    O   3479   2.200   1.480   0.027
    0MOL    O   3480   2.172   1.711   1.219
    0MOL    O   3481   2.246   1.652   0.973
    0MOL    O   3482   2.434   1.480   0.909
    0MOL    Si  3483   2.856   0.140   0.906
    0MOL    Si  3484   2.664   0.066   1.117
    0MOL    Si  3485   2.570   0.106   0.086
    0MOL    Si  3486   2.259   0.102   0.063
    0MOL    Si  3487   2.154   0.071   1.082
    0MOL    Si  3488   2.418   0.136   0.946
    0MOL    Si  3489   2.852   1.633   0.894
    0MOL    Si  3490   2.642   1.730   1.099
    0MOL    Si  3491   2.558   1.634   0.053
    0MOL    Si  3492   2.247   1.634   0.024
    0MOL    Si  3493   2.141   1.736   1.063
    0MOL    Si  3494   2.400   1.636   0.932
    0MOL    O   3495   4.016   1.836   0.265
    0MOL    O   3496   2.235   1.827   0.395
    0MOL    O   3497   2.211   1.704   0.164
    0MOL    O   3498   2.216   1.967   0.174
    0MOL    O   3499   2.352   1.898   0.621
    0MOL    O   3500   2.351   0.088   0.415
    0MOL    O   3501   2.497   1.843   0.408
    0MOL    O   3502   2.429   1.718   0.796
    0MOL    O   3503   2.605   1.884   0.693
    0MOL    O   3504   2.424   1.972   0.863
    0MOL    O   3505   2.798   1.724   0.773
    0MOL    O   3506   2.843   1.901   0.584
    0MOL    O   3507   2.752   1.820   0.351
    0MOL    O   3508   2.867   0.081   0.372
    0MOL    O   3509   2.571   1.715   0.191
    0MOL    O   3510   2.027   0.287   0.285
    0MOL    O   3511   2.274   0.333   0.361
    0MOL    O   3512   2.157   0.493   0.188
    0MOL    O   3513   2.367   0.274   0.599
    0MOL    O   3514   2.529   0.280   0.393
    0MOL    O   3515   2.422   0.494   0.733
    0MOL    O   3516   2.617   0.333   0.657
    0MOL    O   3517   2.823   0.493   0.684
    0MOL    O   3518   2.851   0.263   0.562
    0MOL    O   3519   2.777   0.322   0.316
    0MOL    O   3520   2.588   0.493   0.251
    0MOL    Si  3521   2.167   1.833   0.249
    0MOL    Si  3522   2.359   1.908   0.460
    0MOL    Si  3523   2.453   1.868   0.743
    0MOL    Si  3524   2.763   1.872   0.720
    0MOL    Si  3525   2.869   1.903   0.425
    0MOL    Si  3526   2.605   1.838   0.289
    0MOL    Si  3527   2.171   0.341   0.237
    0MOL    Si  3528   2.380   0.244   0.442
    0MOL    Si  3529   2.464   0.340   0.710
    0MOL    Si  3530   2.775   0.340   0.681
    0MOL    Si  3531   2.882   0.238   0.406
    0MOL    Si  3532   2.622   0.338   0.275
    0MOL    O   3533   2.011   0.849   1.049
    0MOL    O   3534   3.792   0.840   0.919
    0MOL    O   3535   3.816   0.717   1.150
    0MOL    O   3536   3.812   0.980   1.140
    0MOL    O   3537   3.674   0.911   0.694
    0MOL    O   3538   3.676   1.075   0.900
    0MOL    O   3539   3.530   0.856   0.906
    0MOL    O   3540   3.598   0.731   0.518
    0MOL    O   3541   3.422   0.897   0.621
    0MOL    O   3542   3.603   0.985   0.452
    0MOL    O   3543   3.229   0.737   0.541
    0MOL    O   3544   3.183   0.914   0.730
    0MOL    O   3545   3.275   0.833   0.963
    0MOL    O   3546   3.160   1.068   0.942
    0MOL    O   3547   3.456   0.728   1.123
    0MOL    O   3548   4.000   1.273   1.029
    0MOL    O   3549   3.753   1.320   0.954
    0MOL    O   3550   3.870   1.480   1.126
    0MOL    O   3551   3.660   1.261   0.715
    0MOL    O   3552   3.498   1.267   0.921
    0MOL    O   3553   3.605   1.480   0.581
    0MOL    O   3554   3.411   1.320   0.657
    0MOL    O   3555   3.204   1.480   0.630
    0MOL    O   3556   3.176   1.249   0.752
    0MOL    O   3557   3.250   1.309   0.998
    0MOL    O   3558   3.439   1.480   1.063
    0MOL    Si  3559   3.860   0.847   1.065
    0MOL    Si  3560   3.668   0.921   0.854
    0MOL    Si  3561   3.574   0.881   0.571
    0MOL    Si  3562   3.264   0.885   0.594
    0MOL    Si  3563   3.158   0.916   0.889
    0MOL    Si  3564   3.422   0.851   1.026
    0MOL    Si  3565   3.856   1.328   1.077
    0MOL    Si  3566   3.647   1.231   0.873
    0MOL    Si  3567   3.563   1.327   0.604
    0MOL    Si  3568   3.252   1.327   0.633
    0MOL    Si  3569   3.146   1.225   0.909
    0MOL    Si  3570   3.405   1.325   1.039
    0MOL    O   3571   3.011   1.125   0.392
    0MOL    O   3572   3.240   1.134   0.262
    0MOL    O   3573   3.215   1.256   0.493
    0MOL    O   3574   3.220   0.994   0.483
    0MOL    O   3575   3.357   1.063   0.037
    0MOL    O   3576   3.356   0.899   0.242
    0MOL    O   3577   3.501   1.118   0.249
    0MOL    O   3578   3.433   1.243   1.175
    0MOL    O   3579   3.609   1.077   1.278
    0MOL    O   3580   3.428   0.989   1.109
    0MOL    O   3581   3.802   1.237   1.198
    0MOL    O   3582   3.848   1.060   0.073
    0MOL    O   3583   3.757   1.141   0.306
    0MOL    O   3584   3.872   0.906   0.285
    0MOL    O   3585   3.576   1.246   0.466
    0MOL    O   3586   3.031   0.700   0.372
    0MOL    O   3587   3.279   0.653   0.297
    0MOL    O   3588   3.162   0.493   0.469
    0MOL    O   3589   3.372   0.713   0.058
    0MOL    O   3590   3.534   0.707   0.264
    0MOL    O   3591   3.427   0.494   1.238
    0MOL    O   3592   3.621   0.654   1.314
    0MOL    O   3593   3.828   0.494   1.287
    0MOL    O   3594   3.856   0.724   0.095
    0MOL    O   3595   3.781   0.665   0.341
    0MOL    O   3596   3.593   0.493   0.406
    0MOL    Si  3597   3.171   1.127   0.408
    0MOL    Si  3598   3.363   1.053   0.197
    0MOL    Si  3599   3.457   1.093   1.228
    0MOL    Si  3600   3.768   1.088   1.251
    0MOL    Si  3601   3.873   1.058   0.232
    0MOL    Si  3602   3.609   1.123   0.368
    0MOL    Si  3603   3.175   0.646   0.420
    0MOL    Si  3604   3.385   0.743   0.215
    0MOL    Si  3605   3.469   0.647   1.261
    0MOL    Si  3606   3.780   0.647   1.290
    0MOL    Si  3607   3.886   0.749   0.251
    0MOL    Si  3608   3.627   0.649   0.382
    0MOL    O   3609   3.011   1.836   0.392
    0MOL    O   3610   3.240   1.827   0.262
    0MOL    O   3611   3.215   1.704   0.493
    0MOL    O   3612   3.220   1.967   0.483
    0MOL    O   3613   3.357   1.898   0.037
    0MOL    O   3614   3.356   0.088   0.242
    0MOL    O   3615   3.501   1.843   0.249
    0MOL    O   3616   3.433   1.718   1.175
    0MOL    O   3617   3.609   1.884   1.278
    0MOL    O   3618   3.428   1.972   1.109
    0MOL    O   3619   3.802   1.724   1.198
    0MOL    O   3620   3.848   1.901   0.073
    0MOL    O   3621   3.757   1.820   0.306
    0MOL    O   3622   3.872   0.081   0.285
    0MOL    O   3623   3.576   1.715   0.466
    0MOL    O   3624   3.031   0.287   0.372
    0MOL    O   3625   3.279   0.333   0.297
    0MOL    O   3626   3.372   0.274   0.058
    0MOL    O   3627   3.534   0.280   0.264
    0MOL    O   3628   3.621   0.333   1.314
    0MOL    O   3629   3.856   0.263   0.095
    0MOL    O   3630   3.781   0.322   0.341
    0MOL    Si  3631   3.171   1.833   0.408
    0MOL    Si  3632   3.363   1.908   0.197
    0MOL    Si  3633   3.457   1.868   1.228
    0MOL    Si  3634   3.768   1.872   1.251
    0MOL    Si  3635   3.873   1.903   0.232
    0MOL    Si  3636   3.609   1.838   0.368
    0MOL    Si  3637   3.175   0.341   0.420
    0MOL    Si  3638   3.385   0.244   0.215
    0MOL    Si  3639   3.469   0.340   1.261
    0MOL    Si  3640   3.780   0.340   1.290
    0MOL    Si  3641   3.886   0.238   0.251
    0MOL    Si  3642   3.627   0.338   0.382
    0MOL    O   3643   2.011   0.138   1.049
    0MOL    O   3644   3.792   0.147   0.919
    0MOL    O   3645   3.816   0.270   1.150
    0MOL    O   3646   3.812   0.007   1.140
    0MOL    O   3647   3.674   0.076   0.694
    0MOL    O   3648   3.676   1.886   0.900
    0MOL    O   3649   3.530   0.131   0.906
    0MOL    O   3650   3.598   0.256   0.518
    0MOL    O   3651   3.422   0.090   0.621
    0MOL    O   3652   3.603   0.002   0.452
    0MOL    O   3653   3.229   0.250   0.541
    0MOL    O   3654   3.183   0.073   0.730
    0MOL    O   3655   3.275   0.154   0.963
    0MOL    O   3656   3.160   1.893   0.942
    0MOL    O   3657   3.456   0.259   1.123
    0MOL    O   3658   4.000   1.687   1.029
    0MOL    O   3659   3.753   1.640   0.954
    0MOL    O   3660   3.660   1.700   0.715
    0MOL    O   3661   3.498   1.694   0.921
    0MOL    O   3662   3.411   1.641   0.657
    0MOL    O   3663   3.176   1.711   0.752
    0MOL    O   3664   3.250   1.652   0.998
    0MOL    Si  3665   3.860   0.140   1.065
    0MOL    Si  3666   3.668   0.066   0.854
    0MOL    Si  3667   3.574   0.106   0.571
    0MOL    Si  3668   3.264   0.102   0.594
    0MOL    Si  3669   3.158   0.071   0.889
    0MOL    Si  3670   3.422   0.136   1.026
    0MOL    Si  3671   3.856   1.633   1.077
    0MOL    Si  3672   3.647   1.730   0.873
    0MOL    Si  3673   3.563   1.634   0.604
    0MOL    Si  3674   3.252   1.634   0.633
    0MOL    Si  3675   3.146   1.736   0.909
    0MOL    Si  3676   3.405   1.636   1.039
    0MOL    O   3677   4.016   1.125   0.265
    0MOL    O   3678   2.235   1.134   0.395
    0MOL    O   3679   2.211   1.256   0.164
    0MOL    O   3680   2.216   0.994   0.174
    0MOL    O   3681   2.352   1.063   0.621
    0MOL    O   3682   2.351   0.899   0.415
    0MOL    O   3683   2.497   1.118   0.408
    0MOL    O   3684   2.429   1.243   0.796
    0MOL    O   3685   2.605   1.077   0.693
    0MOL    O   3686   2.424   0.989   0.863
    0MOL    O   3687   2.798   1.237   0.773
    0MOL    O   3688   2.843   1.060   0.584
    0MOL    O   3689   2.752   1.141   0.351
    0MOL    O   3690   2.867   0.906   0.372
    0MOL    O   3691   2.571   1.246   0.191
    0MOL    O   3692   2.027   0.700   0.285
    0MOL    O   3693   2.274   0.653   0.361
    0MOL    O   3694   2.367   0.713   0.599
    0MOL    O   3695   2.529   0.707   0.393
    0MOL    O   3696   2.617   0.654   0.657
    0MOL    O   3697   2.851   0.724   0.562
    0MOL    O   3698   2.777   0.665   0.316
    0MOL    Si  3699   2.167   1.127   0.249
    0MOL    Si  3700   2.359   1.053   0.460
    0MOL    Si  3701   2.453   1.093   0.743
    0MOL    Si  3702   2.763   1.088   0.720
    0MOL    Si  3703   2.869   1.058   0.425
    0MOL    Si  3704   2.605   1.123   0.289
    0MOL    Si  3705   2.171   0.646   0.237
    0MOL    Si  3706   2.380   0.743   0.442
    0MOL    Si  3707   2.464   0.647   0.710
    0MOL    Si  3708   2.775   0.647   0.681
    0MOL    Si  3709   2.882   0.749   0.406
    0MOL    Si  3710   2.622   0.649   0.275
    0MOL    O   3711   3.016   0.849   0.922
    0MOL    O   3712   2.788   0.840   1.052
    0MOL    O   3713   2.812   0.717   0.822
    0MOL    O   3714   2.807   0.980   0.831
    0MOL    O   3715   2.670   0.911   1.278
    0MOL    O   3716   2.671   1.075   1.072
    0MOL    O   3717   2.525   0.856   1.065
    0MOL    O   3718   2.594   0.731   0.139
    0MOL    O   3719   2.418   0.897   0.036
    0MOL    O   3720   2.599   0.985   0.206
    0MOL    O   3721   2.225   0.737   0.116
    0MOL    O   3722   2.179   0.914   1.241
    0MOL    O   3723   2.270   0.833   1.008
    0MOL    O   3724   2.155   1.068   1.029
    0MOL    O   3725   2.451   0.728   0.848
    0MOL    O   3726   2.996   1.273   0.942
    0MOL    O   3727   2.749   1.320   1.018
    0MOL    O   3728   2.655   1.261   1.256
    0MOL    O   3729   2.493   1.267   1.050
    0MOL    O   3730   2.406   1.320   0.000
    0MOL    O   3731   2.172   1.249   1.219
    0MOL    O   3732   2.246   1.309   0.973
    0MOL    Si  3733   2.856   0.847   0.906
    0MOL    Si  3734   2.664   0.921   1.117
    0MOL    Si  3735   2.570   0.881   0.086
    0MOL    Si  3736   2.259   0.885   0.063
    0MOL    Si  3737   2.154   0.916   1.082
    0MOL    Si  3738   2.418   0.851   0.946
    0MOL    Si  3739   2.852   1.328   0.894
    0MOL    Si  3740   2.642   1.231   1.099
    0MOL    Si  3741   2.558   1.327   0.053
    0MOL    Si  3742   2.247   1.327   0.024
    0MOL    Si  3743   2.141   1.225   1.063
    0MOL    Si  3744   2.400   1.325   0.932
    0MOL    O   3745   3.016   0.138   2.237
    0MOL    O   3746   2.788   0.147   2.367
    0MOL    O   3747   2.812   0.270   2.136
    0MOL    O   3748   2.807   0.007   2.146
    0MOL    O   3749   2.670   0.076   2.592
    0MOL    O   3750   2.671   1.886   2.386
    0MOL    O   3751   2.525   0.131   2.380
    0MOL    O   3752   2.594   0.256   1.454
    0MOL    O   3753   2.418   0.090   1.350
    0MOL    O   3754   2.599   0.002   1.520
    0MOL    O   3755   2.225   0.250   1.430
    0MOL    O   3756   2.179   0.073   2.555
    0MOL    O   3757   2.270   0.154   2.322
    0MOL    O   3758   2.155   1.893   2.343
    0MOL    O   3759   2.451   0.259   2.163
    0MOL    O   3760   2.996   1.687   2.256
    0MOL    O   3761   2.749   1.640   2.332
    0MOL    O   3762   2.865   1.480   2.159
    0MOL    O   3763   2.655   1.700   2.571
    0MOL    O   3764   2.493   1.694   2.364
    0MOL    O   3765   2.600   1.480   1.390
    0MOL    O   3766   2.406   1.641   1.315
    0MOL    O   3767   2.200   1.480   1.341
    0MOL    O   3768   2.172   1.711   2.533
    0MOL    O   3769   2.246   1.652   2.288
    0MOL    O   3770   2.434   1.480   2.223
    0MOL    Si  3771   2.856   0.140   2.221
    0MOL    Si  3772   2.664   0.066   2.431
    0MOL    Si  3773   2.570   0.106   1.400
    0MOL    Si  3774   2.259   0.102   1.377
    0MOL    Si  3775   2.154   0.071   2.396
    0MOL    Si  3776   2.418   0.136   2.260
    0MOL    Si  3777   2.852   1.633   2.208
    0MOL    Si  3778   2.642   1.730   2.413
    0MOL    Si  3779   2.558   1.634   1.367
    0MOL    Si  3780   2.247   1.634   1.338
    0MOL    Si  3781   2.141   1.736   2.377
    0MOL    Si  3782   2.400   1.636   2.246
    0MOL    O   3783   4.016   1.836   1.579
    0MOL    O   3784   2.235   1.827   1.709
    0MOL    O   3785   2.211   1.704   1.479
    0MOL    O   3786   2.216   1.967   1.489
    0MOL    O   3787   2.352   1.898   1.935
    0MOL    O   3788   2.351   0.088   1.729
    0MOL    O   3789   2.497   1.843   1.722
    0MOL    O   3790   2.429   1.718   2.111
    0MOL    O   3791   2.605   1.884   2.007
    0MOL    O   3792   2.424   1.972   2.177
    0MOL    O   3793   2.798   1.724   2.087
    0MOL    O   3794   2.843   1.901   1.898
    0MOL    O   3795   2.752   1.820   1.665
    0MOL    O   3796   2.867   0.081   1.686
    0MOL    O   3797   2.571   1.715   1.506
    0MOL    O   3798   2.027   0.287   1.599
    0MOL    O   3799   2.274   0.333   1.675
    0MOL    O   3800   2.157   0.494   1.502
    0MOL    O   3801   2.367   0.274   1.914
    0MOL    O   3802   2.529   0.280   1.707
    0MOL    O   3803   2.422   0.494   2.047
    0MOL    O   3804   2.617   0.333   1.972
    0MOL    O   3805   2.823   0.494   1.998
    0MOL    O   3806   2.851   0.263   1.876
    0MOL    O   3807   2.777   0.322   1.630
    0MOL    O   3808   2.588   0.494   1.566
    0MOL    Si  3809   2.167   1.833   1.564
    0MOL    Si  3810   2.359   1.908   1.774
    0MOL    Si  3811   2.453   1.868   2.057
    0MOL    Si  3812   2.763   1.872   2.034
    0MOL    Si  3813   2.869   1.903   1.739
    0MOL    Si  3814   2.605   1.838   1.603
    0MOL    Si  3815   2.171   0.341   1.551
    0MOL    Si  3816   2.380   0.244   1.756
    0MOL    Si  3817   2.464   0.340   2.024
    0MOL    Si  3818   2.775   0.340   1.995
    0MOL    Si  3819   2.882   0.238   1.720
    0MOL    Si  3820   2.622   0.338   1.589
    0MOL    O   3821   2.011   0.849   2.363
    0MOL    O   3822   3.792   0.840   2.233
    0MOL    O   3823   3.816   0.717   2.464
    0MOL    O   3824   3.812   0.980   2.454
    0MOL    O   3825   3.674   0.911   2.008
    0MOL    O   3826   3.676   1.075   2.214
    0MOL    O   3827   3.530   0.856   2.220
    0MOL    O   3828   3.598   0.731   1.832
    0MOL    O   3829   3.422   0.897   1.935
    0MOL    O   3830   3.603   0.985   1.766
    0MOL    O   3831   3.229   0.737   1.855
    0MOL    O   3832   3.183   0.914   2.044
    0MOL    O   3833   3.275   0.833   2.277
    0MOL    O   3834   3.160   1.068   2.256
    0MOL    O   3835   3.456   0.728   2.437
    0MOL    O   3836   4.000   1.273   2.343
    0MOL    O   3837   3.753   1.320   2.268
    0MOL    O   3838   3.870   1.480   2.440
    0MOL    O   3839   3.660   1.261   2.029
    0MOL    O   3840   3.498   1.267   2.235
    0MOL    O   3841   3.605   1.480   1.895
    0MOL    O   3842   3.411   1.320   1.971
    0MOL    O   3843   3.204   1.480   1.944
    0MOL    O   3844   3.176   1.249   2.067
    0MOL    O   3845   3.250   1.309   2.312
    0MOL    O   3846   3.439   1.480   2.377
    0MOL    Si  3847   3.860   0.847   2.379
    0MOL    Si  3848   3.668   0.921   2.168
    0MOL    Si  3849   3.574   0.881   1.885
    0MOL    Si  3850   3.264   0.885   1.908
    0MOL    Si  3851   3.158   0.916   2.204
    0MOL    Si  3852   3.422   0.851   2.340
    0MOL    Si  3853   3.856   1.328   2.391
    0MOL    Si  3854   3.647   1.231   2.187
    0MOL    Si  3855   3.563   1.327   1.918
    0MOL    Si  3856   3.252   1.327   1.947
    0MOL    Si  3857   3.146   1.225   2.223
    0MOL    Si  3858   3.405   1.325   2.354
    0MOL    O   3859   3.011   1.125   1.706
    0MOL    O   3860   3.240   1.134   1.576
    0MOL    O   3861   3.215   1.256   1.807
    0MOL    O   3862   3.220   0.994   1.797
    0MOL    O   3863   3.357   1.063   1.351
    0MOL    O   3864   3.356   0.899   1.557
    0MOL    O   3865   3.501   1.118   1.563
    0MOL    O   3866   3.433   1.243   2.489
    0MOL    O   3867   3.609   1.077   2.592
    0MOL    O   3868   3.428   0.989   2.423
    0MOL    O   3869   3.802   1.237   2.512
    0MOL    O   3870   3.848   1.060   1.387
    0MOL    O   3871   3.757   1.141   1.620
    0MOL    O   3872   3.872   0.906   1.599
    0MOL    O   3873   3.576   1.246   1.780
    0MOL    O   3874   3.031   0.700   1.686
    0MOL    O   3875   3.279   0.653   1.611
    0MOL    O   3876   3.162   0.494   1.783
    0MOL    O   3877   3.372   0.713   1.372
    0MOL    O   3878   3.534   0.707   1.578
    0MOL    O   3879   3.427   0.494   2.552
    0MOL    O   3880   3.621   0.654   2.628
    0MOL    O   3881   3.828   0.494   2.601
    0MOL    O   3882   3.856   0.724   1.410
    0MOL    O   3883   3.781   0.665   1.655
    0MOL    O   3884   3.593   0.494   1.720
    0MOL    Si  3885   3.171   1.127   1.722
    0MOL    Si  3886   3.363   1.053   1.511
    0MOL    Si  3887   3.457   1.093   2.542
    0MOL    Si  3888   3.768   1.088   2.565
    0MOL    Si  3889   3.873   1.058   1.546
    0MOL    Si  3890   3.609   1.123   1.683
    0MOL    Si  3891   3.175   0.646   1.734
    0MOL    Si  3892   3.385   0.743   1.530
    0MOL    Si  3893   3.469   0.647   2.576
    0MOL    Si  3894   3.780   0.647   2.604
    0MOL    Si  3895   3.886   0.749   1.566
    0MOL    Si  3896   3.627   0.649   1.696
    0MOL    O   3897   3.011   1.836   1.706
    0MOL    O   3898   3.240   1.827   1.576
    0MOL    O   3899   3.215   1.704   1.807
    0MOL    O   3900   3.220   1.967   1.797
    0MOL    O   3901   3.357   1.898   1.351
    0MOL    O   3902   3.356   0.088   1.557
    0MOL    O   3903   3.501   1.843   1.563
    0MOL    O   3904   3.433   1.718   2.489
    0MOL    O   3905   3.609   1.884   2.592
    0MOL    O   3906   3.428   1.972   2.423
    0MOL    O   3907   3.802   1.724   2.512
    0MOL    O   3908   3.848   1.901   1.387
    0MOL    O   3909   3.757   1.820   1.620
    0MOL    O   3910   3.872   0.081   1.599
    0MOL    O   3911   3.576   1.715   1.780
    0MOL    O   3912   3.031   0.287   1.686
    0MOL    O   3913   3.279   0.333   1.611
    0MOL    O   3914   3.372   0.274   1.372
    0MOL    O   3915   3.534   0.280   1.578
    0MOL    O   3916   3.621   0.333   2.628
    0MOL    O   3917   3.856   0.263   1.410
    0MOL    O   3918   3.781   0.322   1.655
    0MOL    Si  3919   3.171   1.833   1.722
    0MOL    Si  3920   3.363   1.908   1.511
    0MOL    Si  3921   3.457   1.868   2.542
    0MOL    Si  3922   3.768   1.872   2.565
    0MOL    Si  3923   3.873   1.903   1.546
    0MOL    Si  3924   3.609   1.838   1.683
    0MOL    Si  3925   3.175   0.341   1.734
    0MOL    Si  3926   3.385   0.244   1.530
    0MOL    Si  3927   3.469   0.340   2.576
    0MOL    Si  3928   3.780   0.340   2.604
    0MOL    Si  3929   3.886   0.238   1.566
    0MOL    Si  3930   3.627   0.338   1.696
    0MOL    O   3931   2.011   0.138   2.363
    0MOL    O   3932   3.792   0.147   2.233
    0MOL    O   3933   3.816   0.270   2.464
    0MOL    O   3934   3.812   0.007   2.454
    0MOL    O   3935   3.674   0.076   2.008
    0MOL    O   3936   3.676   1.886   2.214
    0MOL    O   3937   3.530   0.131   2.220
    0MOL    O   3938   3.598   0.256   1.832
    0MOL    O   3939   3.422   0.090   1.935
    0MOL    O   3940   3.603   0.002   1.766
    0MOL    O   3941   3.229   0.250   1.855
    0MOL    O   3942   3.183   0.073   2.044
    0MOL    O   3943   3.275   0.154   2.277
    0MOL    O   3944   3.160   1.893   2.256
    0MOL    O   3945   3.456   0.259   2.437
    0MOL    O   3946   4.000   1.687   2.343
    0MOL    O   3947   3.753   1.640   2.268
    0MOL    O   3948   3.660   1.700   2.029
    0MOL    O   3949   3.498   1.694   2.235
    0MOL    O   3950   3.411   1.641   1.971
    0MOL    O   3951   3.176   1.711   2.067
    0MOL    O   3952   3.250   1.652   2.312
    0MOL    Si  3953   3.860   0.140   2.379
    0MOL    Si  3954   3.668   0.066   2.168
    0MOL    Si  3955   3.574   0.106   1.885
    0MOL    Si  3956   3.264   0.102   1.908
    0MOL    Si  3957   3.158   0.071   2.204
    0MOL    Si  3958   3.422   0.136   2.340
    0MOL    Si  3959   3.856   1.633   2.391
    0MOL    Si  3960   3.647   1.730   2.187
    0MOL    Si  3961   3.563   1.634   1.918
    0MOL    Si  3962   3.252   1.634   1.947
    0MOL    Si  3963   3.146   1.736   2.223
    0MOL    Si  3964   3.405   1.636   2.354
    0MOL    O   3965   4.016   1.125   1.579
    0MOL    O   3966   2.235   1.134   1.709
    0MOL    O   3967   2.211   1.256   1.479
    0MOL    O   3968   2.216   0.994   1.489
    0MOL    O   3969   2.352   1.063   1.935
    0MOL    O   3970   2.351   0.899   1.729
    0MOL    O   3971   2.497   1.118   1.722
    0MOL    O   3972   2.429   1.243   2.111
    0MOL    O   3973   2.605   1.077   2.007
    0MOL    O   3974   2.424   0.989   2.177
    0MOL    O   3975   2.798   1.237   2.087
    0MOL    O   3976   2.843   1.060   1.898
    0MOL    O   3977   2.752   1.141   1.665
    0MOL    O   3978   2.867   0.906   1.686
    0MOL    O   3979   2.571   1.246   1.506
    0MOL    O   3980   2.027   0.700   1.599
    0MOL    O   3981   2.274   0.653   1.675
    0MOL    O   3982   2.367   0.713   1.914
    0MOL    O   3983   2.529   0.707   1.707
    0MOL    O   3984   2.617   0.654   1.972
    0MOL    O   3985   2.851   0.724   1.876
    0MOL    O   3986   2.777   0.665   1.630
    0MOL    Si  3987   2.167   1.127   1.564
    0MOL    Si  3988   2.359   1.053   1.774
    0MOL    Si  3989   2.453   1.093   2.057
    0MOL    Si  3990   2.763   1.088   2.034
    0MOL    Si  3991   2.869   1.058   1.739
    0MOL    Si  3992   2.605   1.123   1.603
    0MOL    Si  3993   2.171   0.646   1.551
    0MOL    Si  3994   2.380   0.743   1.756
    0MOL    Si  3995   2.464   0.647   2.024
    0MOL    Si  3996   2.775   0.647   1.995
    0MOL    Si  3997   2.882   0.749   1.720
    0MOL    Si  3998   2.622   0.649   1.589
    0MOL    O   3999   3.016   0.849   2.237
    0MOL    O   4000   2.788   0.840   2.367
    0MOL    O   4001   2.812   0.717   2.136
    0MOL    O   4002   2.807   0.980   2.146
    0MOL    O   4003   2.670   0.911   2.592
    0MOL    O   4004   2.671   1.075   2.386
    0MOL    O   4005   2.525   0.856   2.380
    0MOL    O   4006   2.594   0.731   1.454
    0MOL    O   4007   2.418   0.897   1.350
    0MOL    O   4008   2.599   0.985   1.520
    0MOL    O   4009   2.225   0.737   1.430
    0MOL    O   4010   2.179   0.914   2.555
    0MOL    O   4011   2.270   0.833   2.322
    0MOL    O   4012   2.155   1.068   2.343
    0MOL    O   4013   2.451   0.728   2.163
    0MOL    O   4014   2.996   1.273   2.256
    0MOL    O   4015   2.749   1.320   2.332
    0MOL    O   4016   2.655   1.261   2.571
    0MOL    O   4017   2.493   1.267   2.364
    0MOL    O   4018   2.406   1.320   1.315
    0MOL    O   4019   2.172   1.249   2.533
    0MOL    O   4020   2.246   1.309   2.288
    0MOL    Si  4021   2.856   0.847   2.221
    0MOL    Si  4022   2.664   0.921   2.431
    0MOL    Si  4023   2.570   0.881   1.400
    0MOL    Si  4024   2.259   0.885   1.377
    0MOL    Si  4025   2.154   0.916   2.396
    0MOL    Si  4026   2.418   0.851   2.260
    0MOL    Si  4027   2.852   1.328   2.208
    0MOL    Si  4028   2.642   1.231   2.413
    0MOL    Si  4029   2.558   1.327   1.367
    0MOL    Si  4030   2.247   1.327   1.338
    0MOL    Si  4031   2.141   1.225   2.377
    0MOL    Si  4032   2.400   1.325   2.246
    0MOL    O   4033   3.016   0.138   3.551
    0MOL    O   4034   2.788   0.147   3.681
    0MOL    O   4035   2.812   0.270   3.450
    0MOL    O   4036   2.807   0.007   3.460
    0MOL    O   4037   2.670   0.076   3.906
    0MOL    O   4038   2.671   1.886   3.700
    0MOL    O   4039   2.525   0.131   3.694
    0MOL    O   4040   2.594   0.256   2.768
    0MOL    O   4041   2.418   0.090   2.665
    0MOL    O   4042   2.599   0.002   2.834
    0MOL    O   4043   2.225   0.250   2.744
    0MOL    O   4044   2.179   0.073   3.869
    0MOL    O   4045   2.270   0.154   3.636
    0MOL    O   4046   2.155   1.893   3.658
    0MOL    O   4047   2.451   0.259   3.477
    0MOL    O   4048   2.996   1.687   3.571
    0MOL    O   4049   2.749   1.640   3.646
    0MOL    O   4050   2.865   1.480   3.474
    0MOL    O   4051   2.655   1.700   3.885
    0MOL    O   4052   2.493   1.694   3.678
    0MOL    O   4053   2.600   1.480   2.705
    0MOL    O   4054   2.406   1.641   2.629
    0MOL    O   4055   2.200   1.480   2.655
    0MOL    O   4056   2.172   1.711   3.847
    0MOL    O   4057   2.246   1.652   3.602
    0MOL    O   4058   2.434   1.480   3.537
    0MOL    Si  4059   2.856   0.140   3.535
    0MOL    Si  4060   2.664   0.066   3.746
    0MOL    Si  4061   2.570   0.106   2.715
    0MOL    Si  4062   2.259   0.102   2.692
    0MOL    Si  4063   2.154   0.071   3.710
    0MOL    Si  4064   2.418   0.136   3.574
    0MOL    Si  4065   2.852   1.633   3.523
    0MOL    Si  4066   2.642   1.730   3.727
    0MOL    Si  4067   2.558   1.634   2.681
    0MOL    Si  4068   2.247   1.634   2.652
    0MOL    Si  4069   2.141   1.736   3.691
    0MOL    Si  4070   2.400   1.636   3.560
    0MOL    O   4071   4.016   1.836   2.894
    0MOL    O   4072   2.235   1.827   3.024
    0MOL    O   4073   2.211   1.704   2.793
    0MOL    O   4074   2.216   1.967   2.803
    0MOL    O   4075   2.352   1.898   3.249
    0MOL    O   4076   2.351   0.088   3.043
    0MOL    O   4077   2.497   1.843   3.037
    0MOL    O   4078   2.429   1.718   3.425
    0MOL    O   4079   2.605   1.884   3.322
    0MOL    O   4080   2.424   1.972   3.491
    0MOL    O   4081   2.798   1.724   3.401
    0MOL    O   4082   2.843   1.901   3.212
    0MOL    O   4083   2.752   1.820   2.979
    0MOL    O   4084   2.867   0.081   3.001
    0MOL    O   4085   2.571   1.715   2.820
    0MOL    O   4086   2.027   0.287   2.913
    0MOL    O   4087   2.274   0.333   2.989
    0MOL    O   4088   2.157   0.494   2.817
    0MOL    O   4089   2.367   0.274   3.228
    0MOL    O   4090   2.529   0.280   3.021
    0MOL    O   4091   2.422   0.494   3.362
    0MOL    O   4092   2.617   0.333   3.286
    0MOL    O   4093   2.823   0.494   3.312
    0MOL    O   4094   2.851   0.263   3.190
    0MOL    O   4095   2.777   0.322   2.945
    0MOL    O   4096   2.588   0.494   2.880
    0MOL    Si  4097   2.167   1.833   2.878
    0MOL    Si  4098   2.359   1.908   3.088
    0MOL    Si  4099   2.453   1.868   3.372
    0MOL    Si  4100   2.763   1.872   3.349
    0MOL    Si  4101   2.869   1.903   3.053
    0MOL    Si  4102   2.605   1.838   2.917
    0MOL    Si  4103   2.171   0.341   2.866
    0MOL    Si  4104   2.380   0.244   3.070
    0MOL    Si  4105   2.464   0.340   3.338
    0MOL    Si  4106   2.775   0.340   3.310
    0MOL    Si  4107   2.882   0.238   3.034
    0MOL    Si  4108   2.622   0.338   2.903
    0MOL    O   4109   2.011   0.849   3.677
    0MOL    O   4110   3.792   0.840   3.547
    0MOL    O   4111   3.816   0.717   3.778
    0MOL    O   4112   3.812   0.980   3.768
    0MOL    O   4113   3.674   0.911   3.322
    0MOL    O   4114   3.676   1.075   3.528
    0MOL    O   4115   3.530   0.856   3.534
    0MOL    O   4116   3.598   0.731   3.146
    0MOL    O   4117   3.422   0.897   3.249
    0MOL    O   4118   3.603   0.985   3.080
    0MOL    O   4119   3.229   0.737   3.170
    0MOL    O   4120   3.183   0.914   3.359
    0MOL    O   4121   3.275   0.833   3.592
    0MOL    O   4122   3.160   1.068   3.570
    0MOL    O   4123   3.456   0.728   3.751
    0MOL    O   4124   4.000   1.273   3.658
    0MOL    O   4125   3.753   1.320   3.582
    0MOL    O   4126   3.870   1.480   3.754
    0MOL    O   4127   3.660   1.261   3.343
    0MOL    O   4128   3.498   1.267   3.550
    0MOL    O   4129   3.605   1.480   3.209
    0MOL    O   4130   3.411   1.320   3.285
    0MOL    O   4131   3.204   1.480   3.259
    0MOL    O   4132   3.176   1.249   3.381
    0MOL    O   4133   3.250   1.309   3.626
    0MOL    O   4134   3.439   1.480   3.691
    0MOL    Si  4135   3.860   0.847   3.693
    0MOL    Si  4136   3.668   0.921   3.483
    0MOL    Si  4137   3.574   0.881   3.199
    0MOL    Si  4138   3.264   0.885   3.222
    0MOL    Si  4139   3.158   0.916   3.518
    0MOL    Si  4140   3.422   0.851   3.654
    0MOL    Si  4141   3.856   1.328   3.705
    0MOL    Si  4142   3.647   1.231   3.501
    0MOL    Si  4143   3.563   1.327   3.233
    0MOL    Si  4144   3.252   1.327   3.262
    0MOL    Si  4145   3.146   1.225   3.537
    0MOL    Si  4146   3.405   1.325   3.668
    0MOL    O   4147   3.011   1.125   3.020
    0MOL    O   4148   3.240   1.134   2.890
    0MOL    O   4149   3.215   1.256   3.121
    0MOL    O   4150   3.220   0.994   3.111
    0MOL    O   4151   3.357   1.063   2.665
    0MOL    O   4152   3.356   0.899   2.871
    0MOL    O   4153   3.501   1.118   2.877
    0MOL    O   4154   3.433   1.243   3.803
    0MOL    O   4155   3.609   1.077   3.906
    0MOL    O   4156   3.428   0.989   3.737
    0MOL    O   4157   3.802   1.237   3.827
    0MOL    O   4158   3.848   1.060   2.702
    0MOL    O   4159   3.757   1.141   2.935
    0MOL    O   4160   3.872   0.906   2.913
    0MOL    O   4161   3.576   1.246   3.094
    0MOL    O   4162   3.031   0.700   3.000
    0MOL    O   4163   3.279   0.653   2.925
    0MOL    O   4164   3.162   0.494   3.097
    0MOL    O   4165   3.372   0.713   2.686
    0MOL    O   4166   3.534   0.707   2.893
    0MOL    O   4167   3.427   0.494   3.867
    0MOL    O   4168   3.621   0.654   3.942
    0MOL    O   4169   3.828   0.494   3.916
    0MOL    O   4170   3.856   0.724   2.724
    0MOL    O   4171   3.781   0.665   2.969
    0MOL    O   4172   3.593   0.494   3.034
    0MOL    Si  4173   3.171   1.127   3.036
    0MOL    Si  4174   3.363   1.053   2.825
    0MOL    Si  4175   3.457   1.093   3.856
    0MOL    Si  4176   3.768   1.088   3.879
    0MOL    Si  4177   3.873   1.058   2.861
    0MOL    Si  4178   3.609   1.123   2.997
    0MOL    Si  4179   3.175   0.646   3.048
    0MOL    Si  4180   3.385   0.743   2.844
    0MOL    Si  4181   3.469   0.647   3.890
    0MOL    Si  4182   3.780   0.647   3.919
    0MOL    Si  4183   3.886   0.749   2.880
    0MOL    Si  4184   3.627   0.649   3.011
    0MOL    O   4185   3.011   1.836   3.020
    0MOL    O   4186   3.240   1.827   2.890
    0MOL    O   4187   3.215   1.704   3.121
    0MOL    O   4188   3.220   1.967   3.111
    0MOL    O   4189   3.357   1.898   2.665
    0MOL    O   4190   3.356   0.088   2.871
    0MOL    O   4191   3.501   1.843   2.877
    0MOL    O   4192   3.433   1.718   3.803
    0MOL    O   4193   3.609   1.884   3.906
    0MOL    O   4194   3.428   1.972   3.737
    0MOL    O   4195   3.802   1.724   3.827
    0MOL    O   4196   3.848   1.901   2.702
    0MOL    O   4197   3.757   1.820   2.935
    0MOL    O   4198   3.872   0.081   2.913
    0MOL    O   4199   3.576   1.715   3.094
    0MOL    O   4200   3.031   0.287   3.000
    0MOL    O   4201   3.279   0.333   2.925
    0MOL    O   4202   3.372   0.274   2.686
    0MOL    O   4203   3.534   0.280   2.893
    0MOL    O   4204   3.621   0.333   3.942
    0MOL    O   4205   3.856   0.263   2.724
    0MOL    O   4206   3.781   0.322   2.969
    0MOL    Si  4207   3.171   1.833   3.036
    0MOL    Si  4208   3.363   1.908   2.825
    0MOL    Si  4209   3.457   1.868   3.856
    0MOL    Si  4210   3.768   1.872   3.879
    0MOL    Si  4211   3.873   1.903   2.861
    0MOL    Si  4212   3.609   1.838   2.997
    0MOL    Si  4213   3.175   0.341   3.048
    0MOL    Si  4214   3.385   0.244   2.844
    0MOL    Si  4215   3.469   0.340   3.890
    0MOL    Si  4216   3.780   0.340   3.919
    0MOL    Si  4217   3.886   0.238   2.880
    0MOL    Si  4218   3.627   0.338   3.011
    0MOL    O   4219   2.011   0.138   3.677
    0MOL    O   4220   3.792   0.147   3.547
    0MOL    O   4221   3.816   0.270   3.778
    0MOL    O   4222   3.812   0.007   3.768
    0MOL    O   4223   3.674   0.076   3.322
    0MOL    O   4224   3.676   1.886   3.528
    0MOL    O   4225   3.530   0.131   3.534
    0MOL    O   4226   3.598   0.256   3.146
    0MOL    O   4227   3.422   0.090   3.249
    0MOL    O   4228   3.603   0.002   3.080
    0MOL    O   4229   3.229   0.250   3.170
    0MOL    O   4230   3.183   0.073   3.359
    0MOL    O   4231   3.275   0.154   3.592
    0MOL    O   4232   3.160   1.893   3.570
    0MOL    O   4233   3.456   0.259   3.751
    0MOL    O   4234   4.000   1.687   3.658
    0MOL    O   4235   3.753   1.640   3.582
    0MOL    O   4236   3.660   1.700   3.343
    0MOL    O   4237   3.498   1.694   3.550
    0MOL    O   4238   3.411   1.641   3.285
    0MOL    O   4239   3.176   1.711   3.381
    0MOL    O   4240   3.250   1.652   3.626
    0MOL    Si  4241   3.860   0.140   3.693
    0MOL    Si  4242   3.668   0.066   3.483
    0MOL    Si  4243   3.574   0.106   3.199
    0MOL    Si  4244   3.264   0.102   3.222
    0MOL    Si  4245   3.158   0.071   3.518
    0MOL    Si  4246   3.422   0.136   3.654
    0MOL    Si  4247   3.856   1.633   3.705
    0MOL    Si  4248   3.647   1.730   3.501
    0MOL    Si  4249   3.563   1.634   3.233
    0MOL    Si  4250   3.252   1.634   3.262
    0MOL    Si  4251   3.146   1.736   3.537
    0MOL    Si  4252   3.405   1.636   3.668
    0MOL    O   4253   4.016   1.125   2.894
    0MOL    O   4254   2.235   1.134   3.024
    0MOL    O   4255   2.211   1.256   2.793
    0MOL    O   4256   2.216   0.994   2.803
    0MOL    O   4257   2.352   1.063   3.249
    0MOL    O   4258   2.351   0.899   3.043
    0MOL    O   4259   2.497   1.118   3.037
    0MOL    O   4260   2.429   1.243   3.425
    0MOL    O   4261   2.605   1.077   3.322
    0MOL    O   4262   2.424   0.989   3.491
    0MOL    O   4263   2.798   1.237   3.401
    0MOL    O   4264   2.843   1.060   3.212
    0MOL    O   4265   2.752   1.141   2.979
    0MOL    O   4266   2.867   0.906   3.001
    0MOL    O   4267   2.571   1.246   2.820
    0MOL    O   4268   2.027   0.700   2.913
    0MOL    O   4269   2.274   0.653   2.989
    0MOL    O   4270   2.367   0.713   3.228
    0MOL    O   4271   2.529   0.707   3.021
    0MOL    O   4272   2.617   0.654   3.286
    0MOL    O   4273   2.851   0.724   3.190
    0MOL    O   4274   2.777   0.665   2.945
    0MOL    Si  4275   2.167   1.127   2.878
    0MOL    Si  4276   2.359   1.053   3.088
    0MOL    Si  4277   2.453   1.093   3.372
    0MOL    Si  4278   2.763   1.088   3.349
    0MOL    Si  4279   2.869   1.058   3.053
    0MOL    Si  4280   2.605   1.123   2.917
    0MOL    Si  4281   2.171   0.646   2.866
    0MOL    Si  4282   2.380   0.743   3.070
    0MOL    Si  4283   2.464   0.647   3.338
    0MOL    Si  4284   2.775   0.647   3.310
    0MOL    Si  4285   2.882   0.749   3.034
    0MOL    Si  4286   2.622   0.649   2.903
    0MOL    O   4287   3.016   0.849   3.551
    0MOL    O   4288   2.788   0.840   3.681
    0MOL    O   4289   2.812   0.717   3.450
    0MOL    O   4290   2.807   0.980   3.460
    0MOL    O   4291   2.670   0.911   3.906
    0MOL    O   4292   2.671   1.075   3.700
    0MOL    O   4293   2.525   0.856   3.694
    0MOL    O   4294   2.594   0.731   2.768
    0MOL    O   4295   2.418   0.897   2.665
    0MOL    O   4296   2.599   0.985   2.834
    0MOL    O   4297   2.225   0.737   2.744
    0MOL    O   4298   2.179   0.914   3.869
    0MOL    O   4299   2.270   0.833   3.636
    0MOL    O   4300   2.155   1.068   3.658
    0MOL    O   4301   2.451   0.728   3.477
    0MOL    O   4302   2.996   1.273   3.571
    0MOL    O   4303   2.749   1.320   3.646
    0MOL    O   4304   2.655   1.261   3.885
    0MOL    O   4305   2.493   1.267   3.678
    0MOL    O   4306   2.406   1.320   2.629
    0MOL    O   4307   2.172   1.249   3.847
    0MOL    O   4308   2.246   1.309   3.602
    0MOL    Si  4309   2.856   0.847   3.535
    0MOL    Si  4310   2.664   0.921   3.746
    0MOL    Si  4311   2.570   0.881   2.715
    0MOL    Si  4312   2.259   0.885   2.692
    0MOL    Si  4313   2.154   0.916   3.710
    0MOL    Si  4314   2.418   0.851   3.574
    0MOL    Si  4315   2.852   1.328   3.523
    0MOL    Si  4316   2.642   1.231   3.727
    0MOL    Si  4317   2.558   1.327   2.681
    0MOL    Si  4318   2.247   1.327   2.652
    0MOL    Si  4319   2.141   1.225   3.691
    0MOL    Si  4320   2.400   1.325   3.560
    0MOL    O   4321   3.016   0.138   4.865
    0MOL    O   4322   2.788   0.147   4.995
    0MOL    O   4323   2.812   0.270   4.764
    0MOL    O   4324   2.807   0.007   4.774
    0MOL    O   4325   2.670   0.076   5.220
    0MOL    O   4326   2.671   1.886   5.014
    0MOL    O   4327   2.525   0.131   5.008
    0MOL    O   4328   2.594   0.256   4.082
    0MOL    O   4329   2.418   0.090   3.979
    0MOL    O   4330   2.599   0.002   4.148
    0MOL    O   4331   2.225   0.250   4.059
    0MOL    O   4332   2.179   0.073   5.184
    0MOL    O   4333   2.270   0.154   4.951
    0MOL    O   4334   2.155   1.893   4.972
    0MOL    O   4335   2.451   0.259   4.791
    0MOL    O   4336   2.996   1.687   4.885
    0MOL    O   4337   2.749   1.640   4.960
    0MOL    O   4338   2.865   1.480   4.788
    0MOL    O   4339   2.655   1.700   5.199
    0MOL    O   4340   2.493   1.694   4.993
    0MOL    O   4341   2.600   1.480   4.019
    0MOL    O   4342   2.406   1.641   3.943
    0MOL    O   4343   2.200   1.480   3.970
    0MOL    O   4344   2.172   1.711   5.162
    0MOL    O   4345   2.246   1.652   4.916
    0MOL    O   4346   2.434   1.480   4.851
    0MOL    Si  4347   2.856   0.140   4.849
    0MOL    Si  4348   2.664   0.066   5.060
    0MOL    Si  4349   2.570   0.106   4.029
    0MOL    Si  4350   2.259   0.102   4.006
    0MOL    Si  4351   2.154   0.071   5.025
    0MOL    Si  4352   2.418   0.136   4.888
    0MOL    Si  4353   2.852   1.633   4.837
    0MOL    Si  4354   2.642   1.730   5.041
    0MOL    Si  4355   2.558   1.634   3.995
    0MOL    Si  4356   2.247   1.634   3.967
    0MOL    Si  4357   2.141   1.736   5.005
    0MOL    Si  4358   2.400   1.636   4.875
    0MOL    O   4359   4.016   1.836   4.208
    0MOL    O   4360   2.235   1.827   4.338
    0MOL    O   4361   2.211   1.704   4.107
    0MOL    O   4362   2.216   1.967   4.117
    0MOL    O   4363   2.352   1.898   4.563
    0MOL    O   4364   2.351   0.088   4.357
    0MOL    O   4365   2.497   1.843   4.351
    0MOL    O   4366   2.429   1.718   4.739
    0MOL    O   4367   2.605   1.884   4.636
    0MOL    O   4368   2.424   1.972   4.805
    0MOL    O   4369   2.798   1.724   4.716
    0MOL    O   4370   2.843   1.901   4.527
    0MOL    O   4371   2.752   1.820   4.294
    0MOL    O   4372   2.867   0.081   4.315
    0MOL    O   4373   2.571   1.715   4.134
    0MOL    O   4374   2.027   0.287   4.228
    0MOL    O   4375   2.274   0.333   4.303
    0MOL    O   4376   2.157   0.494   4.131
    0MOL    O   4377   2.367   0.274   4.542
    0MOL    O   4378   2.529   0.280   4.336
    0MOL    O   4379   2.422   0.494   4.676
    0MOL    O   4380   2.617   0.333   4.600
    0MOL    O   4381   2.823   0.494   4.627
    0MOL    O   4382   2.851   0.263   4.504
    0MOL    O   4383   2.777   0.322   4.259
    0MOL    O   4384   2.588   0.494   4.194
    0MOL    Si  4385   2.167   1.833   4.192
    0MOL    Si  4386   2.359   1.908   4.403
    0MOL    Si  4387   2.453   1.868   4.686
    0MOL    Si  4388   2.763   1.872   4.663
    0MOL    Si  4389   2.869   1.903   4.367
    0MOL    Si  4390   2.605   1.838   4.231
    0MOL    Si  4391   2.171   0.341   4.180
    0MOL    Si  4392   2.380   0.244   4.384
    0MOL    Si  4393   2.464   0.340   4.653
    0MOL    Si  4394   2.775   0.340   4.624
    0MOL    Si  4395   2.882   0.238   4.348
    0MOL    Si  4396   2.622   0.338   4.217
    0MOL    O   4397   2.011   0.849   4.992
    0MOL    O   4398   3.792   0.840   4.862
    0MOL    O   4399   3.816   0.717   5.092
    0MOL    O   4400   3.812   0.980   5.083
    0MOL    O   4401   3.674   0.911   4.636
    0MOL    O   4402   3.676   1.075   4.842
    0MOL    O   4403   3.530   0.856   4.849
    0MOL    O   4404   3.598   0.731   4.460
    0MOL    O   4405   3.422   0.897   4.564
    0MOL    O   4406   3.603   0.985   4.394
    0MOL    O   4407   3.229   0.737   4.484
    0MOL    O   4408   3.183   0.914   4.673
    0MOL    O   4409   3.275   0.833   4.906
    0MOL    O   4410   3.160   1.068   4.885
    0MOL    O   4411   3.456   0.728   5.065
    0MOL    O   4412   4.000   1.273   4.972
    0MOL    O   4413   3.753   1.320   4.896
    0MOL    O   4414   3.870   1.480   5.069
    0MOL    O   4415   3.660   1.261   4.657
    0MOL    O   4416   3.498   1.267   4.864
    0MOL    O   4417   3.605   1.480   4.524
    0MOL    O   4418   3.411   1.320   4.599
    0MOL    O   4419   3.204   1.480   4.573
    0MOL    O   4420   3.176   1.249   4.695
    0MOL    O   4421   3.250   1.309   4.941
    0MOL    O   4422   3.439   1.480   5.005
    0MOL    Si  4423   3.860   0.847   5.007
    0MOL    Si  4424   3.668   0.921   4.797
    0MOL    Si  4425   3.574   0.881   4.514
    0MOL    Si  4426   3.264   0.885   4.537
    0MOL    Si  4427   3.158   0.916   4.832
    0MOL    Si  4428   3.422   0.851   4.968
    0MOL    Si  4429   3.856   1.328   5.020
    0MOL    Si  4430   3.647   1.231   4.815
    0MOL    Si  4431   3.563   1.327   4.547
    0MOL    Si  4432   3.252   1.327   4.576
    0MOL    Si  4433   3.146   1.225   4.851
    0MOL    Si  4434   3.405   1.325   4.982
    0MOL    O   4435   3.011   1.125   4.335
    0MOL    O   4436   3.240   1.134   4.204
    0MOL    O   4437   3.215   1.256   4.435
    0MOL    O   4438   3.220   0.994   4.425
    0MOL    O   4439   3.357   1.063   3.979
    0MOL    O   4440   3.356   0.899   4.185
    0MOL    O   4441   3.501   1.118   4.192
    0MOL    O   4442   3.433   1.243   5.117
    0MOL    O   4443   3.609   1.077   5.221
    0MOL    O   4444   3.428   0.989   5.051
    0MOL    O   4445   3.802   1.237   5.141
    0MOL    O   4446   3.848   1.060   4.016
    0MOL    O   4447   3.757   1.141   4.249
    0MOL    O   4448   3.872   0.906   4.228
    0MOL    O   4449   3.576   1.246   4.408
    0MOL    O   4450   3.031   0.700   4.315
    0MOL    O   4451   3.279   0.653   4.239
    0MOL    O   4452   3.162   0.494   4.412
    0MOL    O   4453   3.372   0.713   4.000
    0MOL    O   4454   3.534   0.707   4.207
    0MOL    O   4455   3.427   0.494   5.181
    0MOL    O   4456   3.621   0.654   5.256
    0MOL    O   4457   3.828   0.494   5.230
    0MOL    O   4458   3.856   0.724   4.038
    0MOL    O   4459   3.781   0.665   4.283
    0MOL    O   4460   3.593   0.494   4.348
    0MOL    Si  4461   3.171   1.127   4.350
    0MOL    Si  4462   3.363   1.053   4.140
    0MOL    Si  4463   3.457   1.093   5.171
    0MOL    Si  4464   3.768   1.088   5.194
    0MOL    Si  4465   3.873   1.058   4.175
    0MOL    Si  4466   3.609   1.123   4.311
    0MOL    Si  4467   3.175   0.646   4.363
    0MOL    Si  4468   3.385   0.743   4.158
    0MOL    Si  4469   3.469   0.647   5.204
    0MOL    Si  4470   3.780   0.647   5.233
    0MOL    Si  4471   3.886   0.749   4.194
    0MOL    Si  4472   3.627   0.649   4.325
    0MOL    O   4473   3.011   1.836   4.335
    0MOL    O   4474   3.240   1.827   4.204
    0MOL    O   4475   3.215   1.704   4.435
    0MOL    O   4476   3.220   1.967   4.425
    0MOL    O   4477   3.357   1.898   3.979
    0MOL    O   4478   3.356   0.088   4.185
    0MOL    O   4479   3.501   1.843   4.192
    0MOL    O   4480   3.433   1.718   5.117
    0MOL    O   4481   3.609   1.884   5.221
    0MOL    O   4482   3.428   1.972   5.051
    0MOL    O   4483   3.802   1.724   5.141
    0MOL    O   4484   3.848   1.901   4.016
    0MOL    O   4485   3.757   1.820   4.249
    0MOL    O   4486   3.872   0.081   4.228
    0MOL    O   4487   3.576   1.715   4.408
    0MOL    O   4488   3.031   0.287   4.315
    0MOL    O   4489   3.279   0.333   4.239
    0MOL    O   4490   3.372   0.274   4.000
    0MOL    O   4491   3.534   0.280   4.207
    0MOL    O   4492   3.621   0.333   5.256
    0MOL    O   4493   3.856   0.263   4.038
    0MOL    O   4494   3.781   0.322   4.283
    0MOL    Si  4495   3.171   1.833   4.350
    0MOL    Si  4496   3.363   1.908   4.140
    0MOL    Si  4497   3.457   1.868   5.171
    0MOL    Si  4498   3.768   1.872   5.194
    0MOL    Si  4499   3.873   1.903   4.175
    0MOL    Si  4500   3.609   1.838   4.311
    0MOL    Si  4501   3.175   0.341   4.363
    0MOL    Si  4502   3.385   0.244   4.158
    0MOL    Si  4503   3.469   0.340   5.204
    0MOL    Si  4504   3.780   0.340   5.233
    0MOL    Si  4505   3.886   0.238   4.194
    0MOL    Si  4506   3.627   0.338   4.325
    0MOL    O   4507   2.011   0.138   4.992
    0MOL    O   4508   3.792   0.147   4.862
    0MOL    O   4509   3.816   0.270   5.092
    0MOL    O   4510   3.812   0.007   5.083
    0MOL    O   4511   3.674   0.076   4.636
    0MOL    O   4512   3.676   1.886   4.842
    0MOL    O   4513   3.530   0.131   4.849
    0MOL    O   4514   3.598   0.256   4.460
    0MOL    O   4515   3.422   0.090   4.564
    0MOL    O   4516   3.603   0.002   4.394
    0MOL    O   4517   3.229   0.250   4.484
    0MOL    O   4518   3.183   0.073   4.673
    0MOL    O   4519   3.275   0.154   4.906
    0MOL    O   4520   3.160   1.893   4.885
    0MOL    O   4521   3.456   0.259   5.065
    0MOL    O   4522   4.000   1.687   4.972
    0MOL    O   4523   3.753   1.640   4.896
    0MOL    O   4524   3.660   1.700   4.657
    0MOL    O   4525   3.498   1.694   4.864
    0MOL    O   4526   3.411   1.641   4.599
    0MOL    O   4527   3.176   1.711   4.695
    0MOL    O   4528   3.250   1.652   4.941
    0MOL    Si  4529   3.860   0.140   5.007
    0MOL    Si  4530   3.668   0.066   4.797
    0MOL    Si  4531   3.574   0.106   4.514
    0MOL    Si  4532   3.264   0.102   4.537
    0MOL    Si  4533   3.158   0.071   4.832
    0MOL    Si  4534   3.422   0.136   4.968
    0MOL    Si  4535   3.856   1.633   5.020
    0MOL    Si  4536   3.647   1.730   4.815
    0MOL    Si  4537   3.563   1.634   4.547
    0MOL    Si  4538   3.252   1.634   4.576
    0MOL    Si  4539   3.146   1.736   4.851
    0MOL    Si  4540   3.405   1.636   4.982
    0MOL    O   4541   4.016   1.125   4.208
    0MOL    O   4542   2.235   1.134   4.338
    0MOL    O   4543   2.211   1.256   4.107
    0MOL    O   4544   2.216   0.994   4.117
    0MOL    O   4545   2.352   1.063   4.563
    0MOL    O   4546   2.351   0.899   4.357
    0MOL    O   4547   2.497   1.118   4.351
    0MOL    O   4548   2.429   1.243   4.739
    0MOL    O   4549   2.605   1.077   4.636
    0MOL    O   4550   2.424   0.989   4.805
    0MOL    O   4551   2.798   1.237   4.716
    0MOL    O   4552   2.843   1.060   4.527
    0MOL    O   4553   2.752   1.141   4.294
    0MOL    O   4554   2.867   0.906   4.315
    0MOL    O   4555   2.571   1.246   4.134
    0MOL    O   4556   2.027   0.700   4.228
    0MOL    O   4557   2.274   0.653   4.303
    0MOL    O   4558   2.367   0.713   4.542
    0MOL    O   4559   2.529   0.707   4.336
    0MOL    O   4560   2.617   0.654   4.600
    0MOL    O   4561   2.851   0.724   4.504
    0MOL    O   4562   2.777   0.665   4.259
    0MOL    Si  4563   2.167   1.127   4.192
    0MOL    Si  4564   2.359   1.053   4.403
    0MOL    Si  4565   2.453   1.093   4.686
    0MOL    Si  4566   2.763   1.088   4.663
    0MOL    Si  4567   2.869   1.058   4.367
    0MOL    Si  4568   2.605   1.123   4.231
    0MOL    Si  4569   2.171   0.646   4.180
    0MOL    Si  4570   2.380   0.743   4.384
    0MOL    Si  4571   2.464   0.647   4.653
    0MOL    Si  4572   2.775   0.647   4.624
    0MOL    Si  4573   2.882   0.749   4.348
    0MOL    Si  4574   2.622   0.649   4.217
    0MOL    O   4575   3.016   0.849   4.865
    0MOL    O   4576   2.788   0.840   4.995
    0MOL    O   4577   2.812   0.717   4.764
    0MOL    O   4578   2.807   0.980   4.774
    0MOL    O   4579   2.670   0.911   5.220
    0MOL    O   4580   2.671   1.075   5.014
    0MOL    O   4581   2.525   0.856   5.008
    0MOL    O   4582   2.594   0.731   4.082
    0MOL    O   4583   2.418   0.897   3.979
    0MOL    O   4584   2.599   0.985   4.148
    0MOL    O   4585   2.225   0.737   4.059
    0MOL    O   4586   2.179   0.914   5.184
    0MOL    O   4587   2.270   0.833   4.951
    0MOL    O   4588   2.155   1.068   4.972
    0MOL    O   4589   2.451   0.728   4.791
    0MOL    O   4590   2.996   1.273   4.885
    0MOL    O   4591   2.749   1.320   4.960
    0MOL    O   4592   2.655   1.261   5.199
    0MOL    O   4593   2.493   1.267   4.993
    0MOL    O   4594   2.406   1.320   3.943
    0MOL    O   4595   2.172   1.249   5.162
    0MOL    O   4596   2.246   1.309   4.916
    0MOL    Si  4597   2.856   0.847   4.849
    0MOL    Si  4598   2.664   0.921   5.060
    0MOL    Si  4599   2.570   0.881   4.029
    0MOL    Si  4600   2.259   0.885   4.006
    0MOL    Si  4601   2.154   0.916   5.025
    0MOL    Si  4602   2.418   0.851   4.888
    0MOL    Si  4603   2.852   1.328   4.837
    0MOL    Si  4604   2.642   1.231   5.041
    0MOL    Si  4605   2.558   1.327   3.995
    0MOL    Si  4606   2.247   1.327   3.967
    0MOL    Si  4607   2.141   1.225   5.005
    0MOL    Si  4608   2.400   1.325   4.875
    0MOL    O   4609   3.016   2.112   0.922
    0MOL    O   4610   2.788   2.121   1.052
    0MOL    O   4611   2.812   2.243   0.822
    0MOL    O   4612   2.807   1.981   0.831
    0MOL    O   4613   2.670   2.050   1.278
    0MOL    O   4614   2.671   3.860   1.072
    0MOL    O   4615   2.525   2.105   1.065
    0MOL    O   4616   2.594   2.230   0.139
    0MOL    O   4617   2.418   2.064   0.036
    0MOL    O   4618   2.599   1.976   0.206
    0MOL    O   4619   2.225   2.224   0.116
    0MOL    O   4620   2.179   2.047   1.241
    0MOL    O   4621   2.270   2.128   1.008
    0MOL    O   4622   2.155   3.867   1.029
    0MOL    O   4623   2.451   2.233   0.848
    0MOL    O   4624   2.996   3.661   0.942
    0MOL    O   4625   2.749   3.614   1.018
    0MOL    O   4626   2.865   3.454   0.845
    0MOL    O   4627   2.655   3.673   1.256
    0MOL    O   4628   2.493   3.668   1.050
    0MOL    O   4629   2.600   3.454   0.076
    0MOL    O   4630   2.406   3.615   0.000
    0MOL    O   4631   2.200   3.454   0.027
    0MOL    O   4632   2.172   3.685   1.219
    0MOL    O   4633   2.246   3.626   0.973
    0MOL    O   4634   2.434   3.454   0.909
    0MOL    Si  4635   2.856   2.114   0.906
    0MOL    Si  4636   2.664   2.040   1.117
    0MOL    Si  4637   2.570   2.080   0.086
    0MOL    Si  4638   2.259   2.075   0.063
    0MOL    Si  4639   2.154   2.045   1.082
    0MOL    Si  4640   2.418   2.109   0.946
    0MOL    Si  4641   2.852   3.607   0.894
    0MOL    Si  4642   2.642   3.704   1.099
    0MOL    Si  4643   2.558   3.608   0.053
    0MOL    Si  4644   2.247   3.608   0.024
    0MOL    Si  4645   2.141   3.710   1.063
    0MOL    Si  4646   2.400   3.610   0.932
    0MOL    O   4647   4.016   3.810   0.265
    0MOL    O   4648   2.235   3.801   0.395
    0MOL    O   4649   2.211   3.678   0.164
    0MOL    O   4650   2.216   3.941   0.174
    0MOL    O   4651   2.352   3.872   0.621
    0MOL    O   4652   2.351   2.062   0.415
    0MOL    O   4653   2.497   3.817   0.408
    0MOL    O   4654   2.429   3.692   0.796
    0MOL    O   4655   2.605   3.858   0.693
    0MOL    O   4656   2.424   3.946   0.863
    0MOL    O   4657   2.798   3.698   0.773
    0MOL    O   4658   2.843   3.875   0.584
    0MOL    O   4659   2.752   3.793   0.351
    0MOL    O   4660   2.867   2.055   0.372
    0MOL    O   4661   2.571   3.688   0.191
    0MOL    O   4662   2.027   2.260   0.285
    0MOL    O   4663   2.274   2.307   0.361
    0MOL    O   4664   2.157   2.467   0.188
    0MOL    O   4665   2.367   2.248   0.599
    0MOL    O   4666   2.529   2.254   0.393
    0MOL    O   4667   2.422   2.467   0.733
    0MOL    O   4668   2.617   2.307   0.657
    0MOL    O   4669   2.823   2.467   0.684
    0MOL    O   4670   2.851   2.236   0.562
    0MOL    O   4671   2.777   2.296   0.316
    0MOL    O   4672   2.588   2.467   0.251
    0MOL    Si  4673   2.167   3.807   0.249
    0MOL    Si  4674   2.359   3.881   0.460
    0MOL    Si  4675   2.453   3.842   0.743
    0MOL    Si  4676   2.763   3.846   0.720
    0MOL    Si  4677   2.869   3.876   0.425
    0MOL    Si  4678   2.605   3.812   0.289
    0MOL    Si  4679   2.171   2.315   0.237
    0MOL    Si  4680   2.380   2.218   0.442
    0MOL    Si  4681   2.464   2.314   0.710
    0MOL    Si  4682   2.775   2.314   0.681
    0MOL    Si  4683   2.882   2.212   0.406
    0MOL    Si  4684   2.622   2.312   0.275
    0MOL    O   4685   2.011   2.823   1.049
    0MOL    O   4686   3.792   2.814   0.919
    0MOL    O   4687   3.816   2.691   1.150
    0MOL    O   4688   3.812   2.954   1.140
    0MOL    O   4689   3.674   2.885   0.694
    0MOL    O   4690   3.676   3.049   0.900
    0MOL    O   4691   3.530   2.830   0.906
    0MOL    O   4692   3.598   2.705   0.518
    0MOL    O   4693   3.422   2.871   0.621
    0MOL    O   4694   3.603   2.959   0.452
    0MOL    O   4695   3.229   2.711   0.541
    0MOL    O   4696   3.183   2.888   0.730
    0MOL    O   4697   3.275   2.807   0.963
    0MOL    O   4698   3.160   3.042   0.942
    0MOL    O   4699   3.456   2.701   1.123
    0MOL    O   4700   4.000   3.247   1.029
    0MOL    O   4701   3.753   3.294   0.954
    0MOL    O   4702   3.870   3.454   1.126
    0MOL    O   4703   3.660   3.235   0.715
    0MOL    O   4704   3.498   3.241   0.921
    0MOL    O   4705   3.605   3.454   0.581
    0MOL    O   4706   3.411   3.294   0.657
    0MOL    O   4707   3.204   3.454   0.630
    0MOL    O   4708   3.176   3.223   0.752
    0MOL    O   4709   3.250   3.282   0.998
    0MOL    O   4710   3.439   3.454   1.063
    0MOL    Si  4711   3.860   2.820   1.065
    0MOL    Si  4712   3.668   2.894   0.854
    0MOL    Si  4713   3.574   2.855   0.571
    0MOL    Si  4714   3.264   2.859   0.594
    0MOL    Si  4715   3.158   2.890   0.889
    0MOL    Si  4716   3.422   2.825   1.026
    0MOL    Si  4717   3.856   3.301   1.077
    0MOL    Si  4718   3.647   3.204   0.873
    0MOL    Si  4719   3.563   3.301   0.604
    0MOL    Si  4720   3.252   3.300   0.633
    0MOL    Si  4721   3.146   3.199   0.909
    0MOL    Si  4722   3.405   3.299   1.039
    0MOL    O   4723   3.011   3.099   0.392
    0MOL    O   4724   3.240   3.107   0.262
    0MOL    O   4725   3.215   3.230   0.493
    0MOL    O   4726   3.220   2.967   0.483
    0MOL    O   4727   3.357   3.037   0.037
    0MOL    O   4728   3.356   2.873   0.242
    0MOL    O   4729   3.501   3.092   0.249
    0MOL    O   4730   3.433   3.217   1.175
    0MOL    O   4731   3.609   3.050   1.278
    0MOL    O   4732   3.428   2.963   1.109
    0MOL    O   4733   3.802   3.210   1.198
    0MOL    O   4734   3.848   3.034   0.073
    0MOL    O   4735   3.757   3.115   0.306
    0MOL    O   4736   3.872   2.880   0.285
    0MOL    O   4737   3.576   3.220   0.466
    0MOL    O   4738   3.031   2.674   0.372
    0MOL    O   4739   3.279   2.627   0.297
    0MOL    O   4740   3.162   2.467   0.469
    0MOL    O   4741   3.372   2.687   0.058
    0MOL    O   4742   3.534   2.681   0.264
    0MOL    O   4743   3.427   2.467   1.238
    0MOL    O   4744   3.621   2.628   1.314
    0MOL    O   4745   3.828   2.467   1.287
    0MOL    O   4746   3.856   2.698   0.095
    0MOL    O   4747   3.781   2.639   0.341
    0MOL    O   4748   3.593   2.467   0.406
    0MOL    Si  4749   3.171   3.101   0.408
    0MOL    Si  4750   3.363   3.027   0.197
    0MOL    Si  4751   3.457   3.067   1.228
    0MOL    Si  4752   3.768   3.062   1.251
    0MOL    Si  4753   3.873   3.032   0.232
    0MOL    Si  4754   3.609   3.096   0.368
    0MOL    Si  4755   3.175   2.620   0.420
    0MOL    Si  4756   3.385   2.717   0.215
    0MOL    Si  4757   3.469   2.621   1.261
    0MOL    Si  4758   3.780   2.621   1.290
    0MOL    Si  4759   3.886   2.723   0.251
    0MOL    Si  4760   3.627   2.623   0.382
    0MOL    O   4761   3.011   3.810   0.392
    0MOL    O   4762   3.240   3.801   0.262
    0MOL    O   4763   3.215   3.678   0.493
    0MOL    O   4764   3.220   3.941   0.483
    0MOL    O   4765   3.357   3.872   0.037
    0MOL    O   4766   3.356   2.062   0.242
    0MOL    O   4767   3.501   3.817   0.249
    0MOL    O   4768   3.433   3.692   1.175
    0MOL    O   4769   3.609   3.858   1.278
    0MOL    O   4770   3.428   3.946   1.109
    0MOL    O   4771   3.802   3.698   1.198
    0MOL    O   4772   3.848   3.875   0.073
    0MOL    O   4773   3.757   3.793   0.306
    0MOL    O   4774   3.872   2.055   0.285
    0MOL    O   4775   3.576   3.688   0.466
    0MOL    O   4776   3.031   2.260   0.372
    0MOL    O   4777   3.279   2.307   0.297
    0MOL    O   4778   3.372   2.248   0.058
    0MOL    O   4779   3.534   2.254   0.264
    0MOL    O   4780   3.621   2.307   1.314
    0MOL    O   4781   3.856   2.236   0.095
    0MOL    O   4782   3.781   2.296   0.341
    0MOL    Si  4783   3.171   3.807   0.408
    0MOL    Si  4784   3.363   3.881   0.197
    0MOL    Si  4785   3.457   3.842   1.228
    0MOL    Si  4786   3.768   3.846   1.251
    0MOL    Si  4787   3.873   3.876   0.232
    0MOL    Si  4788   3.609   3.812   0.368
    0MOL    Si  4789   3.175   2.315   0.420
    0MOL    Si  4790   3.385   2.218   0.215
    0MOL    Si  4791   3.469   2.314   1.261
    0MOL    Si  4792   3.780   2.314   1.290
    0MOL    Si  4793   3.886   2.212   0.251
    0MOL    Si  4794   3.627   2.312   0.382
    0MOL    O   4795   2.011   2.112   1.049
    0MOL    O   4796   3.792   2.121   0.919
    0MOL    O   4797   3.816   2.243   1.150
    0MOL    O   4798   3.812   1.981   1.140
    0MOL    O   4799   3.674   2.050   0.694
    0MOL    O   4800   3.676   3.860   0.900
    0MOL    O   4801   3.530   2.105   0.906
    0MOL    O   4802   3.598   2.230   0.518
    0MOL    O   4803   3.422   2.064   0.621
    0MOL    O   4804   3.603   1.976   0.452
    0MOL    O   4805   3.229   2.224   0.541
    0MOL    O   4806   3.183   2.047   0.730
    0MOL    O   4807   3.275   2.128   0.963
    0MOL    O   4808   3.160   3.867   0.942
    0MOL    O   4809   3.456   2.233   1.123
    0MOL    O   4810   4.000   3.661   1.029
    0MOL    O   4811   3.753   3.614   0.954
    0MOL    O   4812   3.660   3.673   0.715
    0MOL    O   4813   3.498   3.668   0.921
    0MOL    O   4814   3.411   3.615   0.657
    0MOL    O   4815   3.176   3.685   0.752
    0MOL    O   4816   3.250   3.626   0.998
    0MOL    Si  4817   3.860   2.114   1.065
    0MOL    Si  4818   3.668   2.040   0.854
    0MOL    Si  4819   3.574   2.080   0.571
    0MOL    Si  4820   3.264   2.075   0.594
    0MOL    Si  4821   3.158   2.045   0.889
    0MOL    Si  4822   3.422   2.109   1.026
    0MOL    Si  4823   3.856   3.607   1.077
    0MOL    Si  4824   3.647   3.704   0.873
    0MOL    Si  4825   3.563   3.608   0.604
    0MOL    Si  4826   3.252   3.608   0.633
    0MOL    Si  4827   3.146   3.710   0.909
    0MOL    Si  4828   3.405   3.610   1.039
    0MOL    O   4829   4.016   3.099   0.265
    0MOL    O   4830   2.235   3.107   0.395
    0MOL    O   4831   2.211   3.230   0.164
    0MOL    O   4832   2.216   2.967   0.174
    0MOL    O   4833   2.352   3.037   0.621
    0MOL    O   4834   2.351   2.873   0.415
    0MOL    O   4835   2.497   3.092   0.408
    0MOL    O   4836   2.429   3.217   0.796
    0MOL    O   4837   2.605   3.050   0.693
    0MOL    O   4838   2.424   2.963   0.863
    0MOL    O   4839   2.798   3.210   0.773
    0MOL    O   4840   2.843   3.034   0.584
    0MOL    O   4841   2.752   3.115   0.351
    0MOL    O   4842   2.867   2.880   0.372
    0MOL    O   4843   2.571   3.220   0.191
    0MOL    O   4844   2.027   2.674   0.285
    0MOL    O   4845   2.274   2.627   0.361
    0MOL    O   4846   2.367   2.687   0.599
    0MOL    O   4847   2.529   2.681   0.393
    0MOL    O   4848   2.617   2.628   0.657
    0MOL    O   4849   2.851   2.698   0.562
    0MOL    O   4850   2.777   2.639   0.316
    0MOL    Si  4851   2.167   3.101   0.249
    0MOL    Si  4852   2.359   3.027   0.460
    0MOL    Si  4853   2.453   3.067   0.743
    0MOL    Si  4854   2.763   3.062   0.720
    0MOL    Si  4855   2.869   3.032   0.425
    0MOL    Si  4856   2.605   3.096   0.289
    0MOL    Si  4857   2.171   2.620   0.237
    0MOL    Si  4858   2.380   2.717   0.442
    0MOL    Si  4859   2.464   2.621   0.710
    0MOL    Si  4860   2.775   2.621   0.681
    0MOL    Si  4861   2.882   2.723   0.406
    0MOL    Si  4862   2.622   2.623   0.275
    0MOL    O   4863   3.016   2.823   0.922
    0MOL    O   4864   2.788   2.814   1.052
    0MOL    O   4865   2.812   2.691   0.822
    0MOL    O   4866   2.807   2.954   0.831
    0MOL    O   4867   2.670   2.885   1.278
    0MOL    O   4868   2.671   3.049   1.072
    0MOL    O   4869   2.525   2.830   1.065
    0MOL    O   4870   2.594   2.705   0.139
    0MOL    O   4871   2.418   2.871   0.036
    0MOL    O   4872   2.599   2.959   0.206
    0MOL    O   4873   2.225   2.711   0.116
    0MOL    O   4874   2.179   2.888   1.241
    0MOL    O   4875   2.270   2.807   1.008
    0MOL    O   4876   2.155   3.042   1.029
    0MOL    O   4877   2.451   2.701   0.848
    0MOL    O   4878   2.996   3.247   0.942
    0MOL    O   4879   2.749   3.294   1.018
    0MOL    O   4880   2.655   3.235   1.256
    0MOL    O   4881   2.493   3.241   1.050
    0MOL    O   4882   2.406   3.294   0.000
    0MOL    O   4883   2.172   3.223   1.219
    0MOL    O   4884   2.246   3.282   0.973
    0MOL    Si  4885   2.856   2.820   0.906
    0MOL    Si  4886   2.664   2.894   1.117
    0MOL    Si  4887   2.570   2.855   0.086
    0MOL    Si  4888   2.259   2.859   0.063
    0MOL    Si  4889   2.154   2.890   1.082
    0MOL    Si  4890   2.418   2.825   0.946
    0MOL    Si  4891   2.852   3.301   0.894
    0MOL    Si  4892   2.642   3.204   1.099
    0MOL    Si  4893   2.558   3.301   0.053
    0MOL    Si  4894   2.247   3.300   0.024
    0MOL    Si  4895   2.141   3.199   1.063
    0MOL    Si  4896   2.400   3.299   0.932
    0MOL    O   4897   3.016   2.112   2.237
    0MOL    O   4898   2.788   2.121   2.367
    0MOL    O   4899   2.812   2.243   2.136
    0MOL    O   4900   2.807   1.981   2.146
    0MOL    O   4901   2.670   2.050   2.592
    0MOL    O   4902   2.671   3.860   2.386
    0MOL    O   4903   2.525   2.105   2.380
    0MOL    O   4904   2.594   2.230   1.454
    0MOL    O   4905   2.418   2.064   1.350
    0MOL    O   4906   2.599   1.976   1.520
    0MOL    O   4907   2.225   2.224   1.430
    0MOL    O   4908   2.179   2.047   2.555
    0MOL    O   4909   2.270   2.128   2.322
    0MOL    O   4910   2.155   3.867   2.343
    0MOL    O   4911   2.451   2.233   2.163
    0MOL    O   4912   2.996   3.661   2.256
    0MOL    O   4913   2.749   3.614   2.332
    0MOL    O   4914   2.865   3.454   2.159
    0MOL    O   4915   2.655   3.673   2.571
    0MOL    O   4916   2.493   3.668   2.364
    0MOL    O   4917   2.600   3.454   1.390
    0MOL    O   4918   2.406   3.615   1.315
    0MOL    O   4919   2.200   3.454   1.341
    0MOL    O   4920   2.172   3.685   2.533
    0MOL    O   4921   2.246   3.626   2.288
    0MOL    O   4922   2.434   3.454   2.223
    0MOL    Si  4923   2.856   2.114   2.221
    0MOL    Si  4924   2.664   2.040   2.431
    0MOL    Si  4925   2.570   2.080   1.400
    0MOL    Si  4926   2.259   2.075   1.377
    0MOL    Si  4927   2.154   2.045   2.396
    0MOL    Si  4928   2.418   2.109   2.260
    0MOL    Si  4929   2.852   3.607   2.208
    0MOL    Si  4930   2.642   3.704   2.413
    0MOL    Si  4931   2.558   3.608   1.367
    0MOL    Si  4932   2.247   3.608   1.338
    0MOL    Si  4933   2.141   3.710   2.377
    0MOL    Si  4934   2.400   3.610   2.246
    0MOL    O   4935   4.016   3.810   1.579
    0MOL    O   4936   2.235   3.801   1.709
    0MOL    O   4937   2.211   3.678   1.479
    0MOL    O   4938   2.216   3.941   1.489
    0MOL    O   4939   2.352   3.872   1.935
    0MOL    O   4940   2.351   2.062   1.729
    0MOL    O   4941   2.497   3.817   1.722
    0MOL    O   4942   2.429   3.692   2.111
    0MOL    O   4943   2.605   3.858   2.007
    0MOL    O   4944   2.424   3.946   2.177
    0MOL    O   4945   2.798   3.698   2.087
    0MOL    O   4946   2.843   3.875   1.898
    0MOL    O   4947   2.752   3.793   1.665
    0MOL    O   4948   2.867   2.055   1.686
    0MOL    O   4949   2.571   3.688   1.506
    0MOL    O   4950   2.027   2.260   1.599
    0MOL    O   4951   2.274   2.307   1.675
    0MOL    O   4952   2.157   2.467   1.502
    0MOL    O   4953   2.367   2.248   1.914
    0MOL    O   4954   2.529   2.254   1.707
    0MOL    O   4955   2.422   2.467   2.047
    0MOL    O   4956   2.617   2.307   1.972
    0MOL    O   4957   2.823   2.467   1.998
    0MOL    O   4958   2.851   2.236   1.876
    0MOL    O   4959   2.777   2.296   1.630
    0MOL    O   4960   2.588   2.467   1.566
    0MOL    Si  4961   2.167   3.807   1.564
    0MOL    Si  4962   2.359   3.881   1.774
    0MOL    Si  4963   2.453   3.842   2.057
    0MOL    Si  4964   2.763   3.846   2.034
    0MOL    Si  4965   2.869   3.876   1.739
    0MOL    Si  4966   2.605   3.812   1.603
    0MOL    Si  4967   2.171   2.315   1.551
    0MOL    Si  4968   2.380   2.218   1.756
    0MOL    Si  4969   2.464   2.314   2.024
    0MOL    Si  4970   2.775   2.314   1.995
    0MOL    Si  4971   2.882   2.212   1.720
    0MOL    Si  4972   2.622   2.312   1.589
    0MOL    O   4973   2.011   2.823   2.363
    0MOL    O   4974   3.792   2.814   2.233
    0MOL    O   4975   3.816   2.691   2.464
    0MOL    O   4976   3.812   2.954   2.454
    0MOL    O   4977   3.674   2.885   2.008
    0MOL    O   4978   3.676   3.049   2.214
    0MOL    O   4979   3.530   2.830   2.220
    0MOL    O   4980   3.598   2.705   1.832
    0MOL    O   4981   3.422   2.871   1.935
    0MOL    O   4982   3.603   2.959   1.766
    0MOL    O   4983   3.229   2.711   1.855
    0MOL    O   4984   3.183   2.888   2.044
    0MOL    O   4985   3.275   2.807   2.277
    0MOL    O   4986   3.160   3.042   2.256
    0MOL    O   4987   3.456   2.701   2.437
    0MOL    O   4988   4.000   3.247   2.343
    0MOL    O   4989   3.753   3.294   2.268
    0MOL    O   4990   3.870   3.454   2.440
    0MOL    O   4991   3.660   3.235   2.029
    0MOL    O   4992   3.498   3.241   2.235
    0MOL    O   4993   3.605   3.454   1.895
    0MOL    O   4994   3.411   3.294   1.971
    0MOL    O   4995   3.204   3.454   1.944
    0MOL    O   4996   3.176   3.223   2.067
    0MOL    O   4997   3.250   3.282   2.312
    0MOL    O   4998   3.439   3.454   2.377
    0MOL    Si  4999   3.860   2.820   2.379
    0MOL    Si  5000   3.668   2.894   2.168
    0MOL    Si  5001   3.574   2.855   1.885
    0MOL    Si  5002   3.264   2.859   1.908
    0MOL    Si  5003   3.158   2.890   2.204
    0MOL    Si  5004   3.422   2.825   2.340
    0MOL    Si  5005   3.856   3.301   2.391
    0MOL    Si  5006   3.647   3.204   2.187
    0MOL    Si  5007   3.563   3.301   1.918
    0MOL    Si  5008   3.252   3.300   1.947
    0MOL    Si  5009   3.146   3.199   2.223
    0MOL    Si  5010   3.405   3.299   2.354
    0MOL    O   5011   3.011   3.099   1.706
    0MOL    O   5012   3.240   3.107   1.576
    0MOL    O   5013   3.215   3.230   1.807
    0MOL    O   5014   3.220   2.967   1.797
    0MOL    O   5015   3.357   3.037   1.351
    0MOL    O   5016   3.356   2.873   1.557
    0MOL    O   5017   3.501   3.092   1.563
    0MOL    O   5018   3.433   3.217   2.489
    0MOL    O   5019   3.609   3.050   2.592
    0MOL    O   5020   3.428   2.963   2.423
    0MOL    O   5021   3.802   3.210   2.512
    0MOL    O   5022   3.848   3.034   1.387
    0MOL    O   5023   3.757   3.115   1.620
    0MOL    O   5024   3.872   2.880   1.599
    0MOL    O   5025   3.576   3.220   1.780
    0MOL    O   5026   3.031   2.674   1.686
    0MOL    O   5027   3.279   2.627   1.611
    0MOL    O   5028   3.162   2.467   1.783
    0MOL    O   5029   3.372   2.687   1.372
    0MOL    O   5030   3.534   2.681   1.578
    0MOL    O   5031   3.427   2.467   2.552
    0MOL    O   5032   3.621   2.628   2.628
    0MOL    O   5033   3.828   2.467   2.601
    0MOL    O   5034   3.856   2.698   1.410
    0MOL    O   5035   3.781   2.639   1.655
    0MOL    O   5036   3.593   2.467   1.720
    0MOL    Si  5037   3.171   3.101   1.722
    0MOL    Si  5038   3.363   3.027   1.511
    0MOL    Si  5039   3.457   3.067   2.542
    0MOL    Si  5040   3.768   3.062   2.565
    0MOL    Si  5041   3.873   3.032   1.546
    0MOL    Si  5042   3.609   3.096   1.683
    0MOL    Si  5043   3.175   2.620   1.734
    0MOL    Si  5044   3.385   2.717   1.530
    0MOL    Si  5045   3.469   2.621   2.576
    0MOL    Si  5046   3.780   2.621   2.604
    0MOL    Si  5047   3.886   2.723   1.566
    0MOL    Si  5048   3.627   2.623   1.696
    0MOL    O   5049   3.011   3.810   1.706
    0MOL    O   5050   3.240   3.801   1.576
    0MOL    O   5051   3.215   3.678   1.807
    0MOL    O   5052   3.220   3.941   1.797
    0MOL    O   5053   3.357   3.872   1.351
    0MOL    O   5054   3.356   2.062   1.557
    0MOL    O   5055   3.501   3.817   1.563
    0MOL    O   5056   3.433   3.692   2.489
    0MOL    O   5057   3.609   3.858   2.592
    0MOL    O   5058   3.428   3.946   2.423
    0MOL    O   5059   3.802   3.698   2.512
    0MOL    O   5060   3.848   3.875   1.387
    0MOL    O   5061   3.757   3.793   1.620
    0MOL    O   5062   3.872   2.055   1.599
    0MOL    O   5063   3.576   3.688   1.780
    0MOL    O   5064   3.031   2.260   1.686
    0MOL    O   5065   3.279   2.307   1.611
    0MOL    O   5066   3.372   2.248   1.372
    0MOL    O   5067   3.534   2.254   1.578
    0MOL    O   5068   3.621   2.307   2.628
    0MOL    O   5069   3.856   2.236   1.410
    0MOL    O   5070   3.781   2.296   1.655
    0MOL    Si  5071   3.171   3.807   1.722
    0MOL    Si  5072   3.363   3.881   1.511
    0MOL    Si  5073   3.457   3.842   2.542
    0MOL    Si  5074   3.768   3.846   2.565
    0MOL    Si  5075   3.873   3.876   1.546
    0MOL    Si  5076   3.609   3.812   1.683
    0MOL    Si  5077   3.175   2.315   1.734
    0MOL    Si  5078   3.385   2.218   1.530
    0MOL    Si  5079   3.469   2.314   2.576
    0MOL    Si  5080   3.780   2.314   2.604
    0MOL    Si  5081   3.886   2.212   1.566
    0MOL    Si  5082   3.627   2.312   1.696
    0MOL    O   5083   2.011   2.112   2.363
    0MOL    O   5084   3.792   2.121   2.233
    0MOL    O   5085   3.816   2.243   2.464
    0MOL    O   5086   3.812   1.981   2.454
    0MOL    O   5087   3.674   2.050   2.008
    0MOL    O   5088   3.676   3.860   2.214
    0MOL    O   5089   3.530   2.105   2.220
    0MOL    O   5090   3.598   2.230   1.832
    0MOL    O   5091   3.422   2.064   1.935
    0MOL    O   5092   3.603   1.976   1.766
    0MOL    O   5093   3.229   2.224   1.855
    0MOL    O   5094   3.183   2.047   2.044
    0MOL    O   5095   3.275   2.128   2.277
    0MOL    O   5096   3.160   3.867   2.256
    0MOL    O   5097   3.456   2.233   2.437
    0MOL    O   5098   4.000   3.661   2.343
    0MOL    O   5099   3.753   3.614   2.268
    0MOL    O   5100   3.660   3.673   2.029
    0MOL    O   5101   3.498   3.668   2.235
    0MOL    O   5102   3.411   3.615   1.971
    0MOL    O   5103   3.176   3.685   2.067
    0MOL    O   5104   3.250   3.626   2.312
    0MOL    Si  5105   3.860   2.114   2.379
    0MOL    Si  5106   3.668   2.040   2.168
    0MOL    Si  5107   3.574   2.080   1.885
    0MOL    Si  5108   3.264   2.075   1.908
    0MOL    Si  5109   3.158   2.045   2.204
    0MOL    Si  5110   3.422   2.109   2.340
    0MOL    Si  5111   3.856   3.607   2.391
    0MOL    Si  5112   3.647   3.704   2.187
    0MOL    Si  5113   3.563   3.608   1.918
    0MOL    Si  5114   3.252   3.608   1.947
    0MOL    Si  5115   3.146   3.710   2.223
    0MOL    Si  5116   3.405   3.610   2.354
    0MOL    O   5117   4.016   3.099   1.579
    0MOL    O   5118   2.235   3.107   1.709
    0MOL    O   5119   2.211   3.230   1.479
    0MOL    O   5120   2.216   2.967   1.489
    0MOL    O   5121   2.352   3.037   1.935
    0MOL    O   5122   2.351   2.873   1.729
    0MOL    O   5123   2.497   3.092   1.722
    0MOL    O   5124   2.429   3.217   2.111
    0MOL    O   5125   2.605   3.050   2.007
    0MOL    O   5126   2.424   2.963   2.177
    0MOL    O   5127   2.798   3.210   2.087
    0MOL    O   5128   2.843   3.034   1.898
    0MOL    O   5129   2.752   3.115   1.665
    0MOL    O   5130   2.867   2.880   1.686
    0MOL    O   5131   2.571   3.220   1.506
    0MOL    O   5132   2.027   2.674   1.599
    0MOL    O   5133   2.274   2.627   1.675
    0MOL    O   5134   2.367   2.687   1.914
    0MOL    O   5135   2.529   2.681   1.707
    0MOL    O   5136   2.617   2.628   1.972
    0MOL    O   5137   2.851   2.698   1.876
    0MOL    O   5138   2.777   2.639   1.630
    0MOL    Si  5139   2.167   3.101   1.564
    0MOL    Si  5140   2.359   3.027   1.774
    0MOL    Si  5141   2.453   3.067   2.057
    0MOL    Si  5142   2.763   3.062   2.034
    0MOL    Si  5143   2.869   3.032   1.739
    0MOL    Si  5144   2.605   3.096   1.603
    0MOL    Si  5145   2.171   2.620   1.551
    0MOL    Si  5146   2.380   2.717   1.756
    0MOL    Si  5147   2.464   2.621   2.024
    0MOL    Si  5148   2.775   2.621   1.995
    0MOL    Si  5149   2.882   2.723   1.720
    0MOL    Si  5150   2.622   2.623   1.589
    0MOL    O   5151   3.016   2.823   2.237
    0MOL    O   5152   2.788   2.814   2.367
    0MOL    O   5153   2.812   2.691   2.136
    0MOL    O   5154   2.807   2.954   2.146
    0MOL    O   5155   2.670   2.885   2.592
    0MOL    O   5156   2.671   3.049   2.386
    0MOL    O   5157   2.525   2.830   2.380
    0MOL    O   5158   2.594   2.705   1.454
    0MOL    O   5159   2.418   2.871   1.350
    0MOL    O   5160   2.599   2.959   1.520
    0MOL    O   5161   2.225   2.711   1.430
    0MOL    O   5162   2.179   2.888   2.555
    0MOL    O   5163   2.270   2.807   2.322
    0MOL    O   5164   2.155   3.042   2.343
    0MOL    O   5165   2.451   2.701   2.163
    0MOL    O   5166   2.996   3.247   2.256
    0MOL    O   5167   2.749   3.294   2.332
    0MOL    O   5168   2.655   3.235   2.571
    0MOL    O   5169   2.493   3.241   2.364
    0MOL    O   5170   2.406   3.294   1.315
    0MOL    O   5171   2.172   3.223   2.533
    0MOL    O   5172   2.246   3.282   2.288
    0MOL    Si  5173   2.856   2.820   2.221
    0MOL    Si  5174   2.664   2.894   2.431
    0MOL    Si  5175   2.570   2.855   1.400
    0MOL    Si  5176   2.259   2.859   1.377
    0MOL    Si  5177   2.154   2.890   2.396
    0MOL    Si  5178   2.418   2.825   2.260
    0MOL    Si  5179   2.852   3.301   2.208
    0MOL    Si  5180   2.642   3.204   2.413
    0MOL    Si  5181   2.558   3.301   1.367
    0MOL    Si  5182   2.247   3.300   1.338
    0MOL    Si  5183   2.141   3.199   2.377
    0MOL    Si  5184   2.400   3.299   2.246
    0MOL    O   5185   3.016   2.112   3.551
    0MOL    O   5186   2.788   2.121   3.681
    0MOL    O   5187   2.812   2.243   3.450
    0MOL    O   5188   2.807   1.981   3.460
    0MOL    O   5189   2.670   2.050   3.906
    0MOL    O   5190   2.671   3.860   3.700
    0MOL    O   5191   2.525   2.105   3.694
    0MOL    O   5192   2.594   2.230   2.768
    0MOL    O   5193   2.418   2.064   2.665
    0MOL    O   5194   2.599   1.976   2.834
    0MOL    O   5195   2.225   2.224   2.744
    0MOL    O   5196   2.179   2.047   3.869
    0MOL    O   5197   2.270   2.128   3.636
    0MOL    O   5198   2.155   3.867   3.658
    0MOL    O   5199   2.451   2.233   3.477
    0MOL    O   5200   2.996   3.661   3.571
    0MOL    O   5201   2.749   3.614   3.646
    0MOL    O   5202   2.865   3.454   3.474
    0MOL    O   5203   2.655   3.673   3.885
    0MOL    O   5204   2.493   3.668   3.678
    0MOL    O   5205   2.600   3.454   2.705
    0MOL    O   5206   2.406   3.615   2.629
    0MOL    O   5207   2.200   3.454   2.655
    0MOL    O   5208   2.172   3.685   3.847
    0MOL    O   5209   2.246   3.626   3.602
    0MOL    O   5210   2.434   3.454   3.537
    0MOL    Si  5211   2.856   2.114   3.535
    0MOL    Si  5212   2.664   2.040   3.746
    0MOL    Si  5213   2.570   2.080   2.715
    0MOL    Si  5214   2.259   2.075   2.692
    0MOL    Si  5215   2.154   2.045   3.710
    0MOL    Si  5216   2.418   2.109   3.574
    0MOL    Si  5217   2.852   3.607   3.523
    0MOL    Si  5218   2.642   3.704   3.727
    0MOL    Si  5219   2.558   3.608   2.681
    0MOL    Si  5220   2.247   3.608   2.652
    0MOL    Si  5221   2.141   3.710   3.691
    0MOL    Si  5222   2.400   3.610   3.560
    0MOL    O   5223   4.016   3.810   2.894
    0MOL    O   5224   2.235   3.801   3.024
    0MOL    O   5225   2.211   3.678   2.793
    0MOL    O   5226   2.216   3.941   2.803
    0MOL    O   5227   2.352   3.872   3.249
    0MOL    O   5228   2.351   2.062   3.043
    0MOL    O   5229   2.497   3.817   3.037
    0MOL    O   5230   2.429   3.692   3.425
    0MOL    O   5231   2.605   3.858   3.322
    0MOL    O   5232   2.424   3.946   3.491
    0MOL    O   5233   2.798   3.698   3.401
    0MOL    O   5234   2.843   3.875   3.212
    0MOL    O   5235   2.752   3.793   2.979
    0MOL    O   5236   2.867   2.055   3.001
    0MOL    O   5237   2.571   3.688   2.820
    0MOL    O   5238   2.027   2.260   2.913
    0MOL    O   5239   2.274   2.307   2.989
    0MOL    O   5240   2.157   2.467   2.817
    0MOL    O   5241   2.367   2.248   3.228
    0MOL    O   5242   2.529   2.254   3.021
    0MOL    O   5243   2.422   2.467   3.362
    0MOL    O   5244   2.617   2.307   3.286
    0MOL    O   5245   2.823   2.467   3.312
    0MOL    O   5246   2.851   2.236   3.190
    0MOL    O   5247   2.777   2.296   2.945
    0MOL    O   5248   2.588   2.467   2.880
    0MOL    Si  5249   2.167   3.807   2.878
    0MOL    Si  5250   2.359   3.881   3.088
    0MOL    Si  5251   2.453   3.842   3.372
    0MOL    Si  5252   2.763   3.846   3.349
    0MOL    Si  5253   2.869   3.876   3.053
    0MOL    Si  5254   2.605   3.812   2.917
    0MOL    Si  5255   2.171   2.315   2.866
    0MOL    Si  5256   2.380   2.218   3.070
    0MOL    Si  5257   2.464   2.314   3.338
    0MOL    Si  5258   2.775   2.314   3.310
    0MOL    Si  5259   2.882   2.212   3.034
    0MOL    Si  5260   2.622   2.312   2.903
    0MOL    O   5261   2.011   2.823   3.677
    0MOL    O   5262   3.792   2.814   3.547
    0MOL    O   5263   3.816   2.691   3.778
    0MOL    O   5264   3.812   2.954   3.768
    0MOL    O   5265   3.674   2.885   3.322
    0MOL    O   5266   3.676   3.049   3.528
    0MOL    O   5267   3.530   2.830   3.534
    0MOL    O   5268   3.598   2.705   3.146
    0MOL    O   5269   3.422   2.871   3.249
    0MOL    O   5270   3.603   2.959   3.080
    0MOL    O   5271   3.229   2.711   3.170
    0MOL    O   5272   3.183   2.888   3.359
    0MOL    O   5273   3.275   2.807   3.592
    0MOL    O   5274   3.160   3.042   3.570
    0MOL    O   5275   3.456   2.701   3.751
    0MOL    O   5276   4.000   3.247   3.658
    0MOL    O   5277   3.753   3.294   3.582
    0MOL    O   5278   3.870   3.454   3.754
    0MOL    O   5279   3.660   3.235   3.343
    0MOL    O   5280   3.498   3.241   3.550
    0MOL    O   5281   3.605   3.454   3.209
    0MOL    O   5282   3.411   3.294   3.285
    0MOL    O   5283   3.204   3.454   3.259
    0MOL    O   5284   3.176   3.223   3.381
    0MOL    O   5285   3.250   3.282   3.626
    0MOL    O   5286   3.439   3.454   3.691
    0MOL    Si  5287   3.860   2.820   3.693
    0MOL    Si  5288   3.668   2.894   3.483
    0MOL    Si  5289   3.574   2.855   3.199
    0MOL    Si  5290   3.264   2.859   3.222
    0MOL    Si  5291   3.158   2.890   3.518
    0MOL    Si  5292   3.422   2.825   3.654
    0MOL    Si  5293   3.856   3.301   3.705
    0MOL    Si  5294   3.647   3.204   3.501
    0MOL    Si  5295   3.563   3.301   3.233
    0MOL    Si  5296   3.252   3.300   3.262
    0MOL    Si  5297   3.146   3.199   3.537
    0MOL    Si  5298   3.405   3.299   3.668
    0MOL    O   5299   3.011   3.099   3.020
    0MOL    O   5300   3.240   3.107   2.890
    0MOL    O   5301   3.215   3.230   3.121
    0MOL    O   5302   3.220   2.967   3.111
    0MOL    O   5303   3.357   3.037   2.665
    0MOL    O   5304   3.356   2.873   2.871
    0MOL    O   5305   3.501   3.092   2.877
    0MOL    O   5306   3.433   3.217   3.803
    0MOL    O   5307   3.609   3.050   3.906
    0MOL    O   5308   3.428   2.963   3.737
    0MOL    O   5309   3.802   3.210   3.827
    0MOL    O   5310   3.848   3.034   2.702
    0MOL    O   5311   3.757   3.115   2.935
    0MOL    O   5312   3.872   2.880   2.913
    0MOL    O   5313   3.576   3.220   3.094
    0MOL    O   5314   3.031   2.674   3.000
    0MOL    O   5315   3.279   2.627   2.925
    0MOL    O   5316   3.162   2.467   3.097
    0MOL    O   5317   3.372   2.687   2.686
    0MOL    O   5318   3.534   2.681   2.893
    0MOL    O   5319   3.427   2.467   3.867
    0MOL    O   5320   3.621   2.628   3.942
    0MOL    O   5321   3.828   2.467   3.916
    0MOL    O   5322   3.856   2.698   2.724
    0MOL    O   5323   3.781   2.639   2.969
    0MOL    O   5324   3.593   2.467   3.034
    0MOL    Si  5325   3.171   3.101   3.036
    0MOL    Si  5326   3.363   3.027   2.825
    0MOL    Si  5327   3.457   3.067   3.856
    0MOL    Si  5328   3.768   3.062   3.879
    0MOL    Si  5329   3.873   3.032   2.861
    0MOL    Si  5330   3.609   3.096   2.997
    0MOL    Si  5331   3.175   2.620   3.048
    0MOL    Si  5332   3.385   2.717   2.844
    0MOL    Si  5333   3.469   2.621   3.890
    0MOL    Si  5334   3.780   2.621   3.919
    0MOL    Si  5335   3.886   2.723   2.880
    0MOL    Si  5336   3.627   2.623   3.011
    0MOL    O   5337   3.011   3.810   3.020
    0MOL    O   5338   3.240   3.801   2.890
    0MOL    O   5339   3.215   3.678   3.121
    0MOL    O   5340   3.220   3.941   3.111
    0MOL    O   5341   3.357   3.872   2.665
    0MOL    O   5342   3.356   2.062   2.871
    0MOL    O   5343   3.501   3.817   2.877
    0MOL    O   5344   3.433   3.692   3.803
    0MOL    O   5345   3.609   3.858   3.906
    0MOL    O   5346   3.428   3.946   3.737
    0MOL    O   5347   3.802   3.698   3.827
    0MOL    O   5348   3.848   3.875   2.702
    0MOL    O   5349   3.757   3.793   2.935
    0MOL    O   5350   3.872   2.055   2.913
    0MOL    O   5351   3.576   3.688   3.094
    0MOL    O   5352   3.031   2.260   3.000
    0MOL    O   5353   3.279   2.307   2.925
    0MOL    O   5354   3.372   2.248   2.686
    0MOL    O   5355   3.534   2.254   2.893
    0MOL    O   5356   3.621   2.307   3.942
    0MOL    O   5357   3.856   2.236   2.724
    0MOL    O   5358   3.781   2.296   2.969
    0MOL    Si  5359   3.171   3.807   3.036
    0MOL    Si  5360   3.363   3.881   2.825
    0MOL    Si  5361   3.457   3.842   3.856
    0MOL    Si  5362   3.768   3.846   3.879
    0MOL    Si  5363   3.873   3.876   2.861
    0MOL    Si  5364   3.609   3.812   2.997
    0MOL    Si  5365   3.175   2.315   3.048
    0MOL    Si  5366   3.385   2.218   2.844
    0MOL    Si  5367   3.469   2.314   3.890
    0MOL    Si  5368   3.780   2.314   3.919
    0MOL    Si  5369   3.886   2.212   2.880
    0MOL    Si  5370   3.627   2.312   3.011
    0MOL    O   5371   2.011   2.112   3.677
    0MOL    O   5372   3.792   2.121   3.547
    0MOL    O   5373   3.816   2.243   3.778
    0MOL    O   5374   3.812   1.981   3.768
    0MOL    O   5375   3.674   2.050   3.322
    0MOL    O   5376   3.676   3.860   3.528
    0MOL    O   5377   3.530   2.105   3.534
    0MOL    O   5378   3.598   2.230   3.146
    0MOL    O   5379   3.422   2.064   3.249
    0MOL    O   5380   3.603   1.976   3.080
    0MOL    O   5381   3.229   2.224   3.170
    0MOL    O   5382   3.183   2.047   3.359
    0MOL    O   5383   3.275   2.128   3.592
    0MOL    O   5384   3.160   3.867   3.570
    0MOL    O   5385   3.456   2.233   3.751
    0MOL    O   5386   4.000   3.661   3.658
    0MOL    O   5387   3.753   3.614   3.582
    0MOL    O   5388   3.660   3.673   3.343
    0MOL    O   5389   3.498   3.668   3.550
    0MOL    O   5390   3.411   3.615   3.285
    0MOL    O   5391   3.176   3.685   3.381
    0MOL    O   5392   3.250   3.626   3.626
    0MOL    Si  5393   3.860   2.114   3.693
    0MOL    Si  5394   3.668   2.040   3.483
    0MOL    Si  5395   3.574   2.080   3.199
    0MOL    Si  5396   3.264   2.075   3.222
    0MOL    Si  5397   3.158   2.045   3.518
    0MOL    Si  5398   3.422   2.109   3.654
    0MOL    Si  5399   3.856   3.607   3.705
    0MOL    Si  5400   3.647   3.704   3.501
    0MOL    Si  5401   3.563   3.608   3.233
    0MOL    Si  5402   3.252   3.608   3.262
    0MOL    Si  5403   3.146   3.710   3.537
    0MOL    Si  5404   3.405   3.610   3.668
    0MOL    O   5405   4.016   3.099   2.894
    0MOL    O   5406   2.235   3.107   3.024
    0MOL    O   5407   2.211   3.230   2.793
    0MOL    O   5408   2.216   2.967   2.803
    0MOL    O   5409   2.352   3.037   3.249
    0MOL    O   5410   2.351   2.873   3.043
    0MOL    O   5411   2.497   3.092   3.037
    0MOL    O   5412   2.429   3.217   3.425
    0MOL    O   5413   2.605   3.050   3.322
    0MOL    O   5414   2.424   2.963   3.491
    0MOL    O   5415   2.798   3.210   3.401
    0MOL    O   5416   2.843   3.034   3.212
    0MOL    O   5417   2.752   3.115   2.979
    0MOL    O   5418   2.867   2.880   3.001
    0MOL    O   5419   2.571   3.220   2.820
    0MOL    O   5420   2.027   2.674   2.913
    0MOL    O   5421   2.274   2.627   2.989
    0MOL    O   5422   2.367   2.687   3.228
    0MOL    O   5423   2.529   2.681   3.021
    0MOL    O   5424   2.617   2.628   3.286
    0MOL    O   5425   2.851   2.698   3.190
    0MOL    O   5426   2.777   2.639   2.945
    0MOL    Si  5427   2.167   3.101   2.878
    0MOL    Si  5428   2.359   3.027   3.088
    0MOL    Si  5429   2.453   3.067   3.372
    0MOL    Si  5430   2.763   3.062   3.349
    0MOL    Si  5431   2.869   3.032   3.053
    0MOL    Si  5432   2.605   3.096   2.917
    0MOL    Si  5433   2.171   2.620   2.866
    0MOL    Si  5434   2.380   2.717   3.070
    0MOL    Si  5435   2.464   2.621   3.338
    0MOL    Si  5436   2.775   2.621   3.310
    0MOL    Si  5437   2.882   2.723   3.034
    0MOL    Si  5438   2.622   2.623   2.903
    0MOL    O   5439   3.016   2.823   3.551
    0MOL    O   5440   2.788   2.814   3.681
    0MOL    O   5441   2.812   2.691   3.450
    0MOL    O   5442   2.807   2.954   3.460
    0MOL    O   5443   2.670   2.885   3.906
    0MOL    O   5444   2.671   3.049   3.700
    0MOL    O   5445   2.525   2.830   3.694
    0MOL    O   5446   2.594   2.705   2.768
    0MOL    O   5447   2.418   2.871   2.665
    0MOL    O   5448   2.599   2.959   2.834
    0MOL    O   5449   2.225   2.711   2.744
    0MOL    O   5450   2.179   2.888   3.869
    0MOL    O   5451   2.270   2.807   3.636
    0MOL    O   5452   2.155   3.042   3.658
    0MOL    O   5453   2.451   2.701   3.477
    0MOL    O   5454   2.996   3.247   3.571
    0MOL    O   5455   2.749   3.294   3.646
    0MOL    O   5456   2.655   3.235   3.885
    0MOL    O   5457   2.493   3.241   3.678
    0MOL    O   5458   2.406   3.294   2.629
    0MOL    O   5459   2.172   3.223   3.847
    0MOL    O   5460   2.246   3.282   3.602
    0MOL    Si  5461   2.856   2.820   3.535
    0MOL    Si  5462   2.664   2.894   3.746
    0MOL    Si  5463   2.570   2.855   2.715
    0MOL    Si  5464   2.259   2.859   2.692
    0MOL    Si  5465   2.154   2.890   3.710
    0MOL    Si  5466   2.418   2.825   3.574
    0MOL    Si  5467   2.852   3.301   3.523
    0MOL    Si  5468   2.642   3.204   3.727
    0MOL    Si  5469   2.558   3.301   2.681
    0MOL    Si  5470   2.247   3.300   2.652
    0MOL    Si  5471   2.141   3.199   3.691
    0MOL    Si  5472   2.400   3.299   3.560
    0MOL    O   5473   3.016   2.112   4.865
    0MOL    O   5474   2.788   2.121   4.995
    0MOL    O   5475   2.812   2.243   4.764
    0MOL    O   5476   2.807   1.981   4.774
    0MOL    O   5477   2.670   2.050   5.220
    0MOL    O   5478   2.671   3.860   5.014
    0MOL    O   5479   2.525   2.105   5.008
    0MOL    O   5480   2.594   2.230   4.082
    0MOL    O   5481   2.418   2.064   3.979
    0MOL    O   5482   2.599   1.976   4.148
    0MOL    O   5483   2.225   2.224   4.059
    0MOL    O   5484   2.179   2.047   5.184
    0MOL    O   5485   2.270   2.128   4.951
    0MOL    O   5486   2.155   3.867   4.972
    0MOL    O   5487   2.451   2.233   4.791
    0MOL    O   5488   2.996   3.661   4.885
    0MOL    O   5489   2.749   3.614   4.960
    0MOL    O   5490   2.865   3.454   4.788
    0MOL    O   5491   2.655   3.673   5.199
    0MOL    O   5492   2.493   3.668   4.993
    0MOL    O   5493   2.600   3.454   4.019
    0MOL    O   5494   2.406   3.615   3.943
    0MOL    O   5495   2.200   3.454   3.970
    0MOL    O   5496   2.172   3.685   5.162
    0MOL    O   5497   2.246   3.626   4.916
    0MOL    O   5498   2.434   3.454   4.851
    0MOL    Si  5499   2.856   2.114   4.849
    0MOL    Si  5500   2.664   2.040   5.060
    0MOL    Si  5501   2.570   2.080   4.029
    0MOL    Si  5502   2.259   2.075   4.006
    0MOL    Si  5503   2.154   2.045   5.025
    0MOL    Si  5504   2.418   2.109   4.888
    0MOL    Si  5505   2.852   3.607   4.837
    0MOL    Si  5506   2.642   3.704   5.041
    0MOL    Si  5507   2.558   3.608   3.995
    0MOL    Si  5508   2.247   3.608   3.967
    0MOL    Si  5509   2.141   3.710   5.005
    0MOL    Si  5510   2.400   3.610   4.875
    0MOL    O   5511   4.016   3.810   4.208
    0MOL    O   5512   2.235   3.801   4.338
    0MOL    O   5513   2.211   3.678   4.107
    0MOL    O   5514   2.216   3.941   4.117
    0MOL    O   5515   2.352   3.872   4.563
    0MOL    O   5516   2.351   2.062   4.357
    0MOL    O   5517   2.497   3.817   4.351
    0MOL    O   5518   2.429   3.692   4.739
    0MOL    O   5519   2.605   3.858   4.636
    0MOL    O   5520   2.424   3.946   4.805
    0MOL    O   5521   2.798   3.698   4.716
    0MOL    O   5522   2.843   3.875   4.527
    0MOL    O   5523   2.752   3.793   4.294
    0MOL    O   5524   2.867   2.055   4.315
    0MOL    O   5525   2.571   3.688   4.134
    0MOL    O   5526   2.027   2.260   4.228
    0MOL    O   5527   2.274   2.307   4.303
    0MOL    O   5528   2.157   2.467   4.131
    0MOL    O   5529   2.367   2.248   4.542
    0MOL    O   5530   2.529   2.254   4.336
    0MOL    O   5531   2.422   2.467   4.676
    0MOL    O   5532   2.617   2.307   4.600
    0MOL    O   5533   2.823   2.467   4.627
    0MOL    O   5534   2.851   2.236   4.504
    0MOL    O   5535   2.777   2.296   4.259
    0MOL    O   5536   2.588   2.467   4.194
    0MOL    Si  5537   2.167   3.807   4.192
    0MOL    Si  5538   2.359   3.881   4.403
    0MOL    Si  5539   2.453   3.842   4.686
    0MOL    Si  5540   2.763   3.846   4.663
    0MOL    Si  5541   2.869   3.876   4.367
    0MOL    Si  5542   2.605   3.812   4.231
    0MOL    Si  5543   2.171   2.315   4.180
    0MOL    Si  5544   2.380   2.218   4.384
    0MOL    Si  5545   2.464   2.314   4.653
    0MOL    Si  5546   2.775   2.314   4.624
    0MOL    Si  5547   2.882   2.212   4.348
    0MOL    Si  5548   2.622   2.312   4.217
    0MOL    O   5549   2.011   2.823   4.992
    0MOL    O   5550   3.792   2.814   4.862
    0MOL    O   5551   3.816   2.691   5.092
    0MOL    O   5552   3.812   2.954   5.083
    0MOL    O   5553   3.674   2.885   4.636
    0MOL    O   5554   3.676   3.049   4.842
    0MOL    O   5555   3.530   2.830   4.849
    0MOL    O   5556   3.598   2.705   4.460
    0MOL    O   5557   3.422   2.871   4.564
    0MOL    O   5558   3.603   2.959   4.394
    0MOL    O   5559   3.229   2.711   4.484
    0MOL    O   5560   3.183   2.888   4.673
    0MOL    O   5561   3.275   2.807   4.906
    0MOL    O   5562   3.160   3.042   4.885
    0MOL    O   5563   3.456   2.701   5.065
    0MOL    O   5564   4.000   3.247   4.972
    0MOL    O   5565   3.753   3.294   4.896
    0MOL    O   5566   3.870   3.454   5.069
    0MOL    O   5567   3.660   3.235   4.657
    0MOL    O   5568   3.498   3.241   4.864
    0MOL    O   5569   3.605   3.454   4.524
    0MOL    O   5570   3.411   3.294   4.599
    0MOL    O   5571   3.204   3.454   4.573
    0MOL    O   5572   3.176   3.223   4.695
    0MOL    O   5573   3.250   3.282   4.941
    0MOL    O   5574   3.439   3.454   5.005
    0MOL    Si  5575   3.860   2.820   5.007
    0MOL    Si  5576   3.668   2.894   4.797
    0MOL    Si  5577   3.574   2.855   4.514
    0MOL    Si  5578   3.264   2.859   4.537
    0MOL    Si  5579   3.158   2.890   4.832
    0MOL    Si  5580   3.422   2.825   4.968
    0MOL    Si  5581   3.856   3.301   5.020
    0MOL    Si  5582   3.647   3.204   4.815
    0MOL    Si  5583   3.563   3.301   4.547
    0MOL    Si  5584   3.252   3.300   4.576
    0MOL    Si  5585   3.146   3.199   4.851
    0MOL    Si  5586   3.405   3.299   4.982
    0MOL    O   5587   3.011   3.099   4.335
    0MOL    O   5588   3.240   3.107   4.204
    0MOL    O   5589   3.215   3.230   4.435
    0MOL    O   5590   3.220   2.967   4.425
    0MOL    O   5591   3.357   3.037   3.979
    0MOL    O   5592   3.356   2.873   4.185
    0MOL    O   5593   3.501   3.092   4.192
    0MOL    O   5594   3.433   3.217   5.117
    0MOL    O   5595   3.609   3.050   5.221
    0MOL    O   5596   3.428   2.963   5.051
    0MOL    O   5597   3.802   3.210   5.141
    0MOL    O   5598   3.848   3.034   4.016
    0MOL    O   5599   3.757   3.115   4.249
    0MOL    O   5600   3.872   2.880   4.228
    0MOL    O   5601   3.576   3.220   4.408
    0MOL    O   5602   3.031   2.674   4.315
    0MOL    O   5603   3.279   2.627   4.239
    0MOL    O   5604   3.162   2.467   4.412
    0MOL    O   5605   3.372   2.687   4.000
    0MOL    O   5606   3.534   2.681   4.207
    0MOL    O   5607   3.427   2.467   5.181
    0MOL    O   5608   3.621   2.628   5.256
    0MOL    O   5609   3.828   2.467   5.230
    0MOL    O   5610   3.856   2.698   4.038
    0MOL    O   5611   3.781   2.639   4.283
    0MOL    O   5612   3.593   2.467   4.348
    0MOL    Si  5613   3.171   3.101   4.350
    0MOL    Si  5614   3.363   3.027   4.140
    0MOL    Si  5615   3.457   3.067   5.171
    0MOL    Si  5616   3.768   3.062   5.194
    0MOL    Si  5617   3.873   3.032   4.175
    0MOL    Si  5618   3.609   3.096   4.311
    0MOL    Si  5619   3.175   2.620   4.363
    0MOL    Si  5620   3.385   2.717   4.158
    0MOL    Si  5621   3.469   2.621   5.204
    0MOL    Si  5622   3.780   2.621   5.233
    0MOL    Si  5623   3.886   2.723   4.194
    0MOL    Si  5624   3.627   2.623   4.325
    0MOL    O   5625   3.011   3.810   4.335
    0MOL    O   5626   3.240   3.801   4.204
    0MOL    O   5627   3.215   3.678   4.435
    0MOL    O   5628   3.220   3.941   4.425
    0MOL    O   5629   3.357   3.872   3.979
    0MOL    O   5630   3.356   2.062   4.185
    0MOL    O   5631   3.501   3.817   4.192
    0MOL    O   5632   3.433   3.692   5.117
    0MOL    O   5633   3.609   3.858   5.221
    0MOL    O   5634   3.428   3.946   5.051
    0MOL    O   5635   3.802   3.698   5.141
    0MOL    O   5636   3.848   3.875   4.016
    0MOL    O   5637   3.757   3.793   4.249
    0MOL    O   5638   3.872   2.055   4.228
    0MOL    O   5639   3.576   3.688   4.408
    0MOL    O   5640   3.031   2.260   4.315
    0MOL    O   5641   3.279   2.307   4.239
    0MOL    O   5642   3.372   2.248   4.000
    0MOL    O   5643   3.534   2.254   4.207
    0MOL    O   5644   3.621   2.307   5.256
    0MOL    O   5645   3.856   2.236   4.038
    0MOL    O   5646   3.781   2.296   4.283
    0MOL    Si  5647   3.171   3.807   4.350
    0MOL    Si  5648   3.363   3.881   4.140
    0MOL    Si  5649   3.457   3.842   5.171
    0MOL    Si  5650   3.768   3.846   5.194
    0MOL    Si  5651   3.873   3.876   4.175
    0MOL    Si  5652   3.609   3.812   4.311
    0MOL    Si  5653   3.175   2.315   4.363
    0MOL    Si  5654   3.385   2.218   4.158
    0MOL    Si  5655   3.469   2.314   5.204
    0MOL    Si  5656   3.780   2.314   5.233
    0MOL    Si  5657   3.886   2.212   4.194
    0MOL    Si  5658   3.627   2.312   4.325
    0MOL    O   5659   2.011   2.112   4.992
    0MOL    O   5660   3.792   2.121   4.862
    0MOL    O   5661   3.816   2.243   5.092
    0MOL    O   5662   3.812   1.981   5.083
    0MOL    O   5663   3.674   2.050   4.636
    0MOL    O   5664   3.676   3.860   4.842
    0MOL    O   5665   3.530   2.105   4.849
    0MOL    O   5666   3.598   2.230   4.460
    0MOL    O   5667   3.422   2.064   4.564
    0MOL    O   5668   3.603   1.976   4.394
    0MOL    O   5669   3.229   2.224   4.484
    0MOL    O   5670   3.183   2.047   4.673
    0MOL    O   5671   3.275   2.128   4.906
    0MOL    O   5672   3.160   3.867   4.885
    0MOL    O   5673   3.456   2.233   5.065
    0MOL    O   5674   4.000   3.661   4.972
    0MOL    O   5675   3.753   3.614   4.896
    0MOL    O   5676   3.660   3.673   4.657
    0MOL    O   5677   3.498   3.668   4.864
    0MOL    O   5678   3.411   3.615   4.599
    0MOL    O   5679   3.176   3.685   4.695
    0MOL    O   5680   3.250   3.626   4.941
    0MOL    Si  5681   3.860   2.114   5.007
    0MOL    Si  5682   3.668   2.040   4.797
    0MOL    Si  5683   3.574   2.080   4.514
    0MOL    Si  5684   3.264   2.075   4.537
    0MOL    Si  5685   3.158   2.045   4.832
    0MOL    Si  5686   3.422   2.109   4.968
    0MOL    Si  5687   3.856   3.607   5.020
    0MOL    Si  5688   3.647   3.704   4.815
    0MOL    Si  5689   3.563   3.608   4.547
    0MOL    Si  5690   3.252   3.608   4.576
    0MOL    Si  5691   3.146   3.710   4.851
    0MOL    Si  5692   3.405   3.610   4.982
    0MOL    O   5693   4.016   3.099   4.208
    0MOL    O   5694   2.235   3.107   4.338
    0MOL    O   5695   2.211   3.230   4.107
    0MOL    O   5696   2.216   2.967   4.117
    0MOL    O   5697   2.352   3.037   4.563
    0MOL    O   5698   2.351   2.873   4.357
    0MOL    O   5699   2.497   3.092   4.351
    0MOL    O   5700   2.429   3.217   4.739
    0MOL    O   5701   2.605   3.050   4.636
    0MOL    O   5702   2.424   2.963   4.805
    0MOL    O   5703   2.798   3.210   4.716
    0MOL    O   5704   2.843   3.034   4.527
    0MOL    O   5705   2.752   3.115   4.294
    0MOL    O   5706   2.867   2.880   4.315
    0MOL    O   5707   2.571   3.220   4.134
    0MOL    O   5708   2.027   2.674   4.228
    0MOL    O   5709   2.274   2.627   4.303
    0MOL    O   5710   2.367   2.687   4.542
    0MOL    O   5711   2.529   2.681   4.336
    0MOL    O   5712   2.617   2.628   4.600
    0MOL    O   5713   2.851   2.698   4.504
    0MOL    O   5714   2.777   2.639   4.259
    0MOL    Si  5715   2.167   3.101   4.192
    0MOL    Si  5716   2.359   3.027   4.403
    0MOL    Si  5717   2.453   3.067   4.686
    0MOL    Si  5718   2.763   3.062   4.663
    0MOL    Si  5719   2.869   3.032   4.367
    0MOL    Si  5720   2.605   3.096   4.231
    0MOL    Si  5721   2.171   2.620   4.180
    0MOL    Si  5722   2.380   2.717   4.384
    0MOL    Si  5723   2.464   2.621   4.653
    0MOL    Si  5724   2.775   2.621   4.624
    0MOL    Si  5725   2.882   2.723   4.348
    0MOL    Si  5726   2.622   2.623   4.217
    0MOL    O   5727   3.016   2.823   4.865
    0MOL    O   5728   2.788   2.814   4.995
    0MOL    O   5729   2.812   2.691   4.764
    0MOL    O   5730   2.807   2.954   4.774
    0MOL    O   5731   2.670   2.885   5.220
    0MOL    O   5732   2.671   3.049   5.014
    0MOL    O   5733   2.525   2.830   5.008
    0MOL    O   5734   2.594   2.705   4.082
    0MOL    O   5735   2.418   2.871   3.979
    0MOL    O   5736   2.599   2.959   4.148
    0MOL    O   5737   2.225   2.711   4.059
    0MOL    O   5738   2.179   2.888   5.184
    0MOL    O   5739   2.270   2.807   4.951
    0MOL    O   5740   2.155   3.042   4.972
    0MOL    O   5741   2.451   2.701   4.791
    0MOL    O   5742   2.996   3.247   4.885
    0MOL    O   5743   2.749   3.294   4.960
    0MOL    O   5744   2.655   3.235   5.199
    0MOL    O   5745   2.493   3.241   4.993
    0MOL    O   5746   2.406   3.294   3.943
    0MOL    O   5747   2.172   3.223   5.162
    0MOL    O   5748   2.246   3.282   4.916
    0MOL    Si  5749   2.856   2.820   4.849
    0MOL    Si  5750   2.664   2.894   5.060
    0MOL    Si  5751   2.570   2.855   4.029
    0MOL    Si  5752   2.259   2.859   4.006
    0MOL    Si  5753   2.154   2.890   5.025
    0MOL    Si  5754   2.418   2.825   4.888
    0MOL    Si  5755   2.852   3.301   4.837
    0MOL    Si  5756   2.642   3.204   5.041
    0MOL    Si  5757   2.558   3.301   3.995
    0MOL    Si  5758   2.247   3.300   3.967
    0MOL    Si  5759   2.141   3.199   5.005
    0MOL    Si  5760   2.400   3.299   4.875
    0MOL    O   5761   3.016   4.086   0.922
    0MOL    O   5762   2.788   4.094   1.052
    0MOL    O   5763   2.812   4.217   0.822
    0MOL    O   5764   2.807   3.954   0.831
    0MOL    O   5765   2.670   4.024   1.278
    0MOL    O   5766   2.671   5.834   1.072
    0MOL    O   5767   2.525   4.079   1.065
    0MOL    O   5768   2.594   4.203   0.139
    0MOL    O   5769   2.418   4.037   0.036
    0MOL    O   5770   2.599   3.950   0.206
    0MOL    O   5771   2.225   4.197   0.116
    0MOL    O   5772   2.179   4.021   1.241
    0MOL    O   5773   2.270   4.102   1.008
    0MOL    O   5774   2.155   5.840   1.029
    0MOL    O   5775   2.451   4.207   0.848
    0MOL    O   5776   2.996   5.635   0.942
    0MOL    O   5777   2.749   5.588   1.018
    0MOL    O   5778   2.865   5.428   0.845
    0MOL    O   5779   2.655   5.647   1.256
    0MOL    O   5780   2.493   5.642   1.050
    0MOL    O   5781   2.600   5.428   0.076
    0MOL    O   5782   2.406   5.588   0.000
    0MOL    O   5783   2.200   5.428   0.027
    0MOL    O   5784   2.172   5.659   1.219
    0MOL    O   5785   2.246   5.600   0.973
    0MOL    O   5786   2.434   5.428   0.909
    0MOL    Si  5787   2.856   4.088   0.906
    0MOL    Si  5788   2.664   4.014   1.117
    0MOL    Si  5789   2.570   4.053   0.086
    0MOL    Si  5790   2.259   4.049   0.063
    0MOL    Si  5791   2.154   4.019   1.082
    0MOL    Si  5792   2.418   4.083   0.946
    0MOL    Si  5793   2.852   5.581   0.894
    0MOL    Si  5794   2.642   5.678   1.099
    0MOL    Si  5795   2.558   5.581   0.053
    0MOL    Si  5796   2.247   5.582   0.024
    0MOL    Si  5797   2.141   5.683   1.063
    0MOL    Si  5798   2.400   5.583   0.932
    0MOL    O   5799   4.016   5.783   0.265
    0MOL    O   5800   2.235   5.775   0.395
    0MOL    O   5801   2.211   5.652   0.164
    0MOL    O   5802   2.216   5.915   0.174
    0MOL    O   5803   2.352   5.845   0.621
    0MOL    O   5804   2.351   4.035   0.415
    0MOL    O   5805   2.497   5.790   0.408
    0MOL    O   5806   2.429   5.666   0.796
    0MOL    O   5807   2.605   5.832   0.693
    0MOL    O   5808   2.424   5.919   0.863
    0MOL    O   5809   2.798   5.672   0.773
    0MOL    O   5810   2.843   5.848   0.584
    0MOL    O   5811   2.752   5.767   0.351
    0MOL    O   5812   2.867   4.029   0.372
    0MOL    O   5813   2.571   5.662   0.191
    0MOL    O   5814   2.027   4.234   0.285
    0MOL    O   5815   2.274   4.281   0.361
    0MOL    O   5816   2.157   4.441   0.188
    0MOL    O   5817   2.367   4.222   0.599
    0MOL    O   5818   2.529   4.228   0.393
    0MOL    O   5819   2.422   4.441   0.733
    0MOL    O   5820   2.617   4.281   0.657
    0MOL    O   5821   2.823   4.441   0.684
    0MOL    O   5822   2.851   4.210   0.562
    0MOL    O   5823   2.777   4.269   0.316
    0MOL    O   5824   2.588   4.441   0.251
    0MOL    Si  5825   2.167   5.781   0.249
    0MOL    Si  5826   2.359   5.855   0.460
    0MOL    Si  5827   2.453   5.816   0.743
    0MOL    Si  5828   2.763   5.820   0.720
    0MOL    Si  5829   2.869   5.850   0.425
    0MOL    Si  5830   2.605   5.786   0.289
    0MOL    Si  5831   2.171   4.288   0.237
    0MOL    Si  5832   2.380   4.191   0.442
    0MOL    Si  5833   2.464   4.288   0.710
    0MOL    Si  5834   2.775   4.287   0.681
    0MOL    Si  5835   2.882   4.186   0.406
    0MOL    Si  5836   2.622   4.286   0.275
    0MOL    O   5837   2.011   4.797   1.049
    0MOL    O   5838   3.792   4.788   0.919
    0MOL    O   5839   3.816   4.665   1.150
    0MOL    O   5840   3.812   4.928   1.140
    0MOL    O   5841   3.674   4.858   0.694
    0MOL    O   5842   3.676   5.022   0.900
    0MOL    O   5843   3.530   4.804   0.906
    0MOL    O   5844   3.598   4.679   0.518
    0MOL    O   5845   3.422   4.845   0.621
    0MOL    O   5846   3.603   4.933   0.452
    0MOL    O   5847   3.229   4.685   0.541
    0MOL    O   5848   3.183   4.862   0.730
    0MOL    O   5849   3.275   4.780   0.963
    0MOL    O   5850   3.160   5.016   0.942
    0MOL    O   5851   3.456   4.675   1.123
    0MOL    O   5852   4.000   5.221   1.029
    0MOL    O   5853   3.753   5.268   0.954
    0MOL    O   5854   3.870   5.428   1.126
    0MOL    O   5855   3.660   5.209   0.715
    0MOL    O   5856   3.498   5.214   0.921
    0MOL    O   5857   3.605   5.428   0.581
    0MOL    O   5858   3.411   5.268   0.657
    0MOL    O   5859   3.204   5.428   0.630
    0MOL    O   5860   3.176   5.197   0.752
    0MOL    O   5861   3.250   5.256   0.998
    0MOL    O   5862   3.439   5.428   1.063
    0MOL    Si  5863   3.860   4.794   1.065
    0MOL    Si  5864   3.668   4.868   0.854
    0MOL    Si  5865   3.574   4.829   0.571
    0MOL    Si  5866   3.264   4.833   0.594
    0MOL    Si  5867   3.158   4.863   0.889
    0MOL    Si  5868   3.422   4.799   1.026
    0MOL    Si  5869   3.856   5.275   1.077
    0MOL    Si  5870   3.647   5.178   0.873
    0MOL    Si  5871   3.563   5.274   0.604
    0MOL    Si  5872   3.252   5.274   0.633
    0MOL    Si  5873   3.146   5.172   0.909
    0MOL    Si  5874   3.405   5.272   1.039
    0MOL    O   5875   3.011   5.072   0.392
    0MOL    O   5876   3.240   5.081   0.262
    0MOL    O   5877   3.215   5.204   0.493
    0MOL    O   5878   3.220   4.941   0.483
    0MOL    O   5879   3.357   5.011   0.037
    0MOL    O   5880   3.356   4.847   0.242
    0MOL    O   5881   3.501   5.065   0.249
    0MOL    O   5882   3.433   5.190   1.175
    0MOL    O   5883   3.609   5.024   1.278
    0MOL    O   5884   3.428   4.937   1.109
    0MOL    O   5885   3.802   5.184   1.198
    0MOL    O   5886   3.848   5.008   0.073
    0MOL    O   5887   3.757   5.089   0.306
    0MOL    O   5888   3.872   4.853   0.285
    0MOL    O   5889   3.576   5.194   0.466
    0MOL    O   5890   3.031   4.648   0.372
    0MOL    O   5891   3.279   4.601   0.297
    0MOL    O   5892   3.162   4.441   0.469
    0MOL    O   5893   3.372   4.660   0.058
    0MOL    O   5894   3.534   4.655   0.264
    0MOL    O   5895   3.427   4.441   1.238
    0MOL    O   5896   3.621   4.602   1.314
    0MOL    O   5897   3.828   4.441   1.287
    0MOL    O   5898   3.856   4.672   0.095
    0MOL    O   5899   3.781   4.613   0.341
    0MOL    O   5900   3.593   4.441   0.406
    0MOL    Si  5901   3.171   5.075   0.408
    0MOL    Si  5902   3.363   5.001   0.197
    0MOL    Si  5903   3.457   5.040   1.228
    0MOL    Si  5904   3.768   5.036   1.251
    0MOL    Si  5905   3.873   5.006   0.232
    0MOL    Si  5906   3.609   5.070   0.368
    0MOL    Si  5907   3.175   4.594   0.420
    0MOL    Si  5908   3.385   4.691   0.215
    0MOL    Si  5909   3.469   4.595   1.261
    0MOL    Si  5910   3.780   4.595   1.290
    0MOL    Si  5911   3.886   4.697   0.251
    0MOL    Si  5912   3.627   4.597   0.382
    0MOL    O   5913   3.011   5.783   0.392
    0MOL    O   5914   3.240   5.775   0.262
    0MOL    O   5915   3.215   5.652   0.493
    0MOL    O   5916   3.220   5.915   0.483
    0MOL    O   5917   3.357   5.845   0.037
    0MOL    O   5918   3.356   4.035   0.242
    0MOL    O   5919   3.501   5.790   0.249
    0MOL    O   5920   3.433   5.666   1.175
    0MOL    O   5921   3.609   5.832   1.278
    0MOL    O   5922   3.428   5.919   1.109
    0MOL    O   5923   3.802   5.672   1.198
    0MOL    O   5924   3.848   5.848   0.073
    0MOL    O   5925   3.757   5.767   0.306
    0MOL    O   5926   3.872   4.029   0.285
    0MOL    O   5927   3.576   5.662   0.466
    0MOL    O   5928   3.031   4.234   0.372
    0MOL    O   5929   3.279   4.281   0.297
    0MOL    O   5930   3.372   4.222   0.058
    0MOL    O   5931   3.534   4.228   0.264
    0MOL    O   5932   3.621   4.281   1.314
    0MOL    O   5933   3.856   4.210   0.095
    0MOL    O   5934   3.781   4.269   0.341
    0MOL    Si  5935   3.171   5.781   0.408
    0MOL    Si  5936   3.363   5.855   0.197
    0MOL    Si  5937   3.457   5.816   1.228
    0MOL    Si  5938   3.768   5.820   1.251
    0MOL    Si  5939   3.873   5.850   0.232
    0MOL    Si  5940   3.609   5.786   0.368
    0MOL    Si  5941   3.175   4.288   0.420
    0MOL    Si  5942   3.385   4.191   0.215
    0MOL    Si  5943   3.469   4.288   1.261
    0MOL    Si  5944   3.780   4.287   1.290
    0MOL    Si  5945   3.886   4.186   0.251
    0MOL    Si  5946   3.627   4.286   0.382
    0MOL    O   5947   2.011   4.086   1.049
    0MOL    O   5948   3.792   4.094   0.919
    0MOL    O   5949   3.816   4.217   1.150
    0MOL    O   5950   3.812   3.954   1.140
    0MOL    O   5951   3.674   4.024   0.694
    0MOL    O   5952   3.676   5.834   0.900
    0MOL    O   5953   3.530   4.079   0.906
    0MOL    O   5954   3.598   4.203   0.518
    0MOL    O   5955   3.422   4.037   0.621
    0MOL    O   5956   3.603   3.950   0.452
    0MOL    O   5957   3.229   4.197   0.541
    0MOL    O   5958   3.183   4.021   0.730
    0MOL    O   5959   3.275   4.102   0.963
    0MOL    O   5960   3.160   5.840   0.942
    0MOL    O   5961   3.456   4.207   1.123
    0MOL    O   5962   4.000   5.635   1.029
    0MOL    O   5963   3.753   5.588   0.954
    0MOL    O   5964   3.660   5.647   0.715
    0MOL    O   5965   3.498   5.642   0.921
    0MOL    O   5966   3.411   5.588   0.657
    0MOL    O   5967   3.176   5.659   0.752
    0MOL    O   5968   3.250   5.600   0.998
    0MOL    Si  5969   3.860   4.088   1.065
    0MOL    Si  5970   3.668   4.014   0.854
    0MOL    Si  5971   3.574   4.053   0.571
    0MOL    Si  5972   3.264   4.049   0.594
    0MOL    Si  5973   3.158   4.019   0.889
    0MOL    Si  5974   3.422   4.083   1.026
    0MOL    Si  5975   3.856   5.581   1.077
    0MOL    Si  5976   3.647   5.678   0.873
    0MOL    Si  5977   3.563   5.581   0.604
    0MOL    Si  5978   3.252   5.582   0.633
    0MOL    Si  5979   3.146   5.683   0.909
    0MOL    Si  5980   3.405   5.583   1.039
    0MOL    O   5981   4.016   5.072   0.265
    0MOL    O   5982   2.235   5.081   0.395
    0MOL    O   5983   2.211   5.204   0.164
    0MOL    O   5984   2.216   4.941   0.174
    0MOL    O   5985   2.352   5.011   0.621
    0MOL    O   5986   2.351   4.847   0.415
    0MOL    O   5987   2.497   5.065   0.408
    0MOL    O   5988   2.429   5.190   0.796
    0MOL    O   5989   2.605   5.024   0.693
    0MOL    O   5990   2.424   4.937   0.863
    0MOL    O   5991   2.798   5.184   0.773
    0MOL    O   5992   2.843   5.008   0.584
    0MOL    O   5993   2.752   5.089   0.351
    0MOL    O   5994   2.867   4.853   0.372
    0MOL    O   5995   2.571   5.194   0.191
    0MOL    O   5996   2.027   4.648   0.285
    0MOL    O   5997   2.274   4.601   0.361
    0MOL    O   5998   2.367   4.660   0.599
    0MOL    O   5999   2.529   4.655   0.393
    0MOL    O   6000   2.617   4.602   0.657
    0MOL    O   6001   2.851   4.672   0.562
    0MOL    O   6002   2.777   4.613   0.316
    0MOL    Si  6003   2.167   5.075   0.249
    0MOL    Si  6004   2.359   5.001   0.460
    0MOL    Si  6005   2.453   5.040   0.743
    0MOL    Si  6006   2.763   5.036   0.720
    0MOL    Si  6007   2.869   5.006   0.425
    0MOL    Si  6008   2.605   5.070   0.289
    0MOL    Si  6009   2.171   4.594   0.237
    0MOL    Si  6010   2.380   4.691   0.442
    0MOL    Si  6011   2.464   4.595   0.710
    0MOL    Si  6012   2.775   4.595   0.681
    0MOL    Si  6013   2.882   4.697   0.406
    0MOL    Si  6014   2.622   4.597   0.275
    0MOL    O   6015   3.016   4.797   0.922
    0MOL    O   6016   2.788   4.788   1.052
    0MOL    O   6017   2.812   4.665   0.822
    0MOL    O   6018   2.807   4.928   0.831
    0MOL    O   6019   2.670   4.858   1.278
    0MOL    O   6020   2.671   5.022   1.072
    0MOL    O   6021   2.525   4.804   1.065
    0MOL    O   6022   2.594   4.679   0.139
    0MOL    O   6023   2.418   4.845   0.036
    0MOL    O   6024   2.599   4.933   0.206
    0MOL    O   6025   2.225   4.685   0.116
    0MOL    O   6026   2.179   4.862   1.241
    0MOL    O   6027   2.270   4.780   1.008
    0MOL    O   6028   2.155   5.016   1.029
    0MOL    O   6029   2.451   4.675   0.848
    0MOL    O   6030   2.996   5.221   0.942
    0MOL    O   6031   2.749   5.268   1.018
    0MOL    O   6032   2.655   5.209   1.256
    0MOL    O   6033   2.493   5.214   1.050
    0MOL    O   6034   2.406   5.268   0.000
    0MOL    O   6035   2.172   5.197   1.219
    0MOL    O   6036   2.246   5.256   0.973
    0MOL    Si  6037   2.856   4.794   0.906
    0MOL    Si  6038   2.664   4.868   1.117
    0MOL    Si  6039   2.570   4.829   0.086
    0MOL    Si  6040   2.259   4.833   0.063
    0MOL    Si  6041   2.154   4.863   1.082
    0MOL    Si  6042   2.418   4.799   0.946
    0MOL    Si  6043   2.852   5.275   0.894
    0MOL    Si  6044   2.642   5.178   1.099
    0MOL    Si  6045   2.558   5.274   0.053
    0MOL    Si  6046   2.247   5.274   0.024
    0MOL    Si  6047   2.141   5.172   1.063
    0MOL    Si  6048   2.400   5.272   0.932
    0MOL    O   6049   3.016   4.086   2.237
    0MOL    O   6050   2.788   4.094   2.367
    0MOL    O   6051   2.812   4.217   2.136
    0MOL    O   6052   2.807   3.954   2.146
    0MOL    O   6053   2.670   4.024   2.592
    0MOL    O   6054   2.671   5.834   2.386
    0MOL    O   6055   2.525   4.079   2.380
    0MOL    O   6056   2.594   4.203   1.454
    0MOL    O   6057   2.418   4.037   1.350
    0MOL    O   6058   2.599   3.950   1.520
    0MOL    O   6059   2.225   4.197   1.430
    0MOL    O   6060   2.179   4.021   2.555
    0MOL    O   6061   2.270   4.102   2.322
    0MOL    O   6062   2.155   5.840   2.343
    0MOL    O   6063   2.451   4.207   2.163
    0MOL    O   6064   2.996   5.635   2.256
    0MOL    O   6065   2.749   5.588   2.332
    0MOL    O   6066   2.865   5.428   2.159
    0MOL    O   6067   2.655   5.647   2.571
    0MOL    O   6068   2.493   5.642   2.364
    0MOL    O   6069   2.600   5.428   1.390
    0MOL    O   6070   2.406   5.588   1.315
    0MOL    O   6071   2.200   5.428   1.341
    0MOL    O   6072   2.172   5.659   2.533
    0MOL    O   6073   2.246   5.600   2.288
    0MOL    O   6074   2.434   5.428   2.223
    0MOL    Si  6075   2.856   4.088   2.221
    0MOL    Si  6076   2.664   4.014   2.431
    0MOL    Si  6077   2.570   4.053   1.400
    0MOL    Si  6078   2.259   4.049   1.377
    0MOL    Si  6079   2.154   4.019   2.396
    0MOL    Si  6080   2.418   4.083   2.260
    0MOL    Si  6081   2.852   5.581   2.208
    0MOL    Si  6082   2.642   5.678   2.413
    0MOL    Si  6083   2.558   5.581   1.367
    0MOL    Si  6084   2.247   5.582   1.338
    0MOL    Si  6085   2.141   5.683   2.377
    0MOL    Si  6086   2.400   5.583   2.246
    0MOL    O   6087   4.016   5.783   1.579
    0MOL    O   6088   2.235   5.775   1.709
    0MOL    O   6089   2.211   5.652   1.479
    0MOL    O   6090   2.216   5.915   1.489
    0MOL    O   6091   2.352   5.845   1.935
    0MOL    O   6092   2.351   4.035   1.729
    0MOL    O   6093   2.497   5.790   1.722
    0MOL    O   6094   2.429   5.666   2.111
    0MOL    O   6095   2.605   5.832   2.007
    0MOL    O   6096   2.424   5.919   2.177
    0MOL    O   6097   2.798   5.672   2.087
    0MOL    O   6098   2.843   5.848   1.898
    0MOL    O   6099   2.752   5.767   1.665
    0MOL    O   6100   2.867   4.029   1.686
    0MOL    O   6101   2.571   5.662   1.506
    0MOL    O   6102   2.027   4.234   1.599
    0MOL    O   6103   2.274   4.281   1.675
    0MOL    O   6104   2.157   4.441   1.502
    0MOL    O   6105   2.367   4.222   1.914
    0MOL    O   6106   2.529   4.228   1.707
    0MOL    O   6107   2.422   4.441   2.047
    0MOL    O   6108   2.617   4.281   1.972
    0MOL    O   6109   2.823   4.441   1.998
    0MOL    O   6110   2.851   4.210   1.876
    0MOL    O   6111   2.777   4.269   1.630
    0MOL    O   6112   2.588   4.441   1.566
    0MOL    Si  6113   2.167   5.781   1.564
    0MOL    Si  6114   2.359   5.855   1.774
    0MOL    Si  6115   2.453   5.816   2.057
    0MOL    Si  6116   2.763   5.820   2.034
    0MOL    Si  6117   2.869   5.850   1.739
    0MOL    Si  6118   2.605   5.786   1.603
    0MOL    Si  6119   2.171   4.288   1.551
    0MOL    Si  6120   2.380   4.191   1.756
    0MOL    Si  6121   2.464   4.288   2.024
    0MOL    Si  6122   2.775   4.287   1.995
    0MOL    Si  6123   2.882   4.186   1.720
    0MOL    Si  6124   2.622   4.286   1.589
    0MOL    O   6125   2.011   4.797   2.363
    0MOL    O   6126   3.792   4.788   2.233
    0MOL    O   6127   3.816   4.665   2.464
    0MOL    O   6128   3.812   4.928   2.454
    0MOL    O   6129   3.674   4.858   2.008
    0MOL    O   6130   3.676   5.022   2.214
    0MOL    O   6131   3.530   4.804   2.220
    0MOL    O   6132   3.598   4.679   1.832
    0MOL    O   6133   3.422   4.845   1.935
    0MOL    O   6134   3.603   4.933   1.766
    0MOL    O   6135   3.229   4.685   1.855
    0MOL    O   6136   3.183   4.862   2.044
    0MOL    O   6137   3.275   4.780   2.277
    0MOL    O   6138   3.160   5.016   2.256
    0MOL    O   6139   3.456   4.675   2.437
    0MOL    O   6140   4.000   5.221   2.343
    0MOL    O   6141   3.753   5.268   2.268
    0MOL    O   6142   3.870   5.428   2.440
    0MOL    O   6143   3.660   5.209   2.029
    0MOL    O   6144   3.498   5.214   2.235
    0MOL    O   6145   3.605   5.428   1.895
    0MOL    O   6146   3.411   5.268   1.971
    0MOL    O   6147   3.204   5.428   1.944
    0MOL    O   6148   3.176   5.197   2.067
    0MOL    O   6149   3.250   5.256   2.312
    0MOL    O   6150   3.439   5.428   2.377
    0MOL    Si  6151   3.860   4.794   2.379
    0MOL    Si  6152   3.668   4.868   2.168
    0MOL    Si  6153   3.574   4.829   1.885
    0MOL    Si  6154   3.264   4.833   1.908
    0MOL    Si  6155   3.158   4.863   2.204
    0MOL    Si  6156   3.422   4.799   2.340
    0MOL    Si  6157   3.856   5.275   2.391
    0MOL    Si  6158   3.647   5.178   2.187
    0MOL    Si  6159   3.563   5.274   1.918
    0MOL    Si  6160   3.252   5.274   1.947
    0MOL    Si  6161   3.146   5.172   2.223
    0MOL    Si  6162   3.405   5.272   2.354
    0MOL    O   6163   3.011   5.072   1.706
    0MOL    O   6164   3.240   5.081   1.576
    0MOL    O   6165   3.215   5.204   1.807
    0MOL    O   6166   3.220   4.941   1.797
    0MOL    O   6167   3.357   5.011   1.351
    0MOL    O   6168   3.356   4.847   1.557
    0MOL    O   6169   3.501   5.065   1.563
    0MOL    O   6170   3.433   5.190   2.489
    0MOL    O   6171   3.609   5.024   2.592
    0MOL    O   6172   3.428   4.937   2.423
    0MOL    O   6173   3.802   5.184   2.512
    0MOL    O   6174   3.848   5.008   1.387
    0MOL    O   6175   3.757   5.089   1.620
    0MOL    O   6176   3.872   4.853   1.599
    0MOL    O   6177   3.576   5.194   1.780
    0MOL    O   6178   3.031   4.648   1.686
    0MOL    O   6179   3.279   4.601   1.611
    0MOL    O   6180   3.162   4.441   1.783
    0MOL    O   6181   3.372   4.660   1.372
    0MOL    O   6182   3.534   4.655   1.578
    0MOL    O   6183   3.427   4.441   2.552
    0MOL    O   6184   3.621   4.602   2.628
    0MOL    O   6185   3.828   4.441   2.601
    0MOL    O   6186   3.856   4.672   1.410
    0MOL    O   6187   3.781   4.613   1.655
    0MOL    O   6188   3.593   4.441   1.720
    0MOL    Si  6189   3.171   5.075   1.722
    0MOL    Si  6190   3.363   5.001   1.511
    0MOL    Si  6191   3.457   5.040   2.542
    0MOL    Si  6192   3.768   5.036   2.565
    0MOL    Si  6193   3.873   5.006   1.546
    0MOL    Si  6194   3.609   5.070   1.683
    0MOL    Si  6195   3.175   4.594   1.734
    0MOL    Si  6196   3.385   4.691   1.530
    0MOL    Si  6197   3.469   4.595   2.576
    0MOL    Si  6198   3.780   4.595   2.604
    0MOL    Si  6199   3.886   4.697   1.566
    0MOL    Si  6200   3.627   4.597   1.696
    0MOL    O   6201   3.011   5.783   1.706
    0MOL    O   6202   3.240   5.775   1.576
    0MOL    O   6203   3.215   5.652   1.807
    0MOL    O   6204   3.220   5.915   1.797
    0MOL    O   6205   3.357   5.845   1.351
    0MOL    O   6206   3.356   4.035   1.557
    0MOL    O   6207   3.501   5.790   1.563
    0MOL    O   6208   3.433   5.666   2.489
    0MOL    O   6209   3.609   5.832   2.592
    0MOL    O   6210   3.428   5.919   2.423
    0MOL    O   6211   3.802   5.672   2.512
    0MOL    O   6212   3.848   5.848   1.387
    0MOL    O   6213   3.757   5.767   1.620
    0MOL    O   6214   3.872   4.029   1.599
    0MOL    O   6215   3.576   5.662   1.780
    0MOL    O   6216   3.031   4.234   1.686
    0MOL    O   6217   3.279   4.281   1.611
    0MOL    O   6218   3.372   4.222   1.372
    0MOL    O   6219   3.534   4.228   1.578
    0MOL    O   6220   3.621   4.281   2.628
    0MOL    O   6221   3.856   4.210   1.410
    0MOL    O   6222   3.781   4.269   1.655
    0MOL    Si  6223   3.171   5.781   1.722
    0MOL    Si  6224   3.363   5.855   1.511
    0MOL    Si  6225   3.457   5.816   2.542
    0MOL    Si  6226   3.768   5.820   2.565
    0MOL    Si  6227   3.873   5.850   1.546
    0MOL    Si  6228   3.609   5.786   1.683
    0MOL    Si  6229   3.175   4.288   1.734
    0MOL    Si  6230   3.385   4.191   1.530
    0MOL    Si  6231   3.469   4.288   2.576
    0MOL    Si  6232   3.780   4.287   2.604
    0MOL    Si  6233   3.886   4.186   1.566
    0MOL    Si  6234   3.627   4.286   1.696
    0MOL    O   6235   2.011   4.086   2.363
    0MOL    O   6236   3.792   4.094   2.233
    0MOL    O   6237   3.816   4.217   2.464
    0MOL    O   6238   3.812   3.954   2.454
    0MOL    O   6239   3.674   4.024   2.008
    0MOL    O   6240   3.676   5.834   2.214
    0MOL    O   6241   3.530   4.079   2.220
    0MOL    O   6242   3.598   4.203   1.832
    0MOL    O   6243   3.422   4.037   1.935
    0MOL    O   6244   3.603   3.950   1.766
    0MOL    O   6245   3.229   4.197   1.855
    0MOL    O   6246   3.183   4.021   2.044
    0MOL    O   6247   3.275   4.102   2.277
    0MOL    O   6248   3.160   5.840   2.256
    0MOL    O   6249   3.456   4.207   2.437
    0MOL    O   6250   4.000   5.635   2.343
    0MOL    O   6251   3.753   5.588   2.268
    0MOL    O   6252   3.660   5.647   2.029
    0MOL    O   6253   3.498   5.642   2.235
    0MOL    O   6254   3.411   5.588   1.971
    0MOL    O   6255   3.176   5.659   2.067
    0MOL    O   6256   3.250   5.600   2.312
    0MOL    Si  6257   3.860   4.088   2.379
    0MOL    Si  6258   3.668   4.014   2.168
    0MOL    Si  6259   3.574   4.053   1.885
    0MOL    Si  6260   3.264   4.049   1.908
    0MOL    Si  6261   3.158   4.019   2.204
    0MOL    Si  6262   3.422   4.083   2.340
    0MOL    Si  6263   3.856   5.581   2.391
    0MOL    Si  6264   3.647   5.678   2.187
    0MOL    Si  6265   3.563   5.581   1.918
    0MOL    Si  6266   3.252   5.582   1.947
    0MOL    Si  6267   3.146   5.683   2.223
    0MOL    Si  6268   3.405   5.583   2.354
    0MOL    O   6269   4.016   5.072   1.579
    0MOL    O   6270   2.235   5.081   1.709
    0MOL    O   6271   2.211   5.204   1.479
    0MOL    O   6272   2.216   4.941   1.489
    0MOL    O   6273   2.352   5.011   1.935
    0MOL    O   6274   2.351   4.847   1.729
    0MOL    O   6275   2.497   5.065   1.722
    0MOL    O   6276   2.429   5.190   2.111
    0MOL    O   6277   2.605   5.024   2.007
    0MOL    O   6278   2.424   4.937   2.177
    0MOL    O   6279   2.798   5.184   2.087
    0MOL    O   6280   2.843   5.008   1.898
    0MOL    O   6281   2.752   5.089   1.665
    0MOL    O   6282   2.867   4.853   1.686
    0MOL    O   6283   2.571   5.194   1.506
    0MOL    O   6284   2.027   4.648   1.599
    0MOL    O   6285   2.274   4.601   1.675
    0MOL    O   6286   2.367   4.660   1.914
    0MOL    O   6287   2.529   4.655   1.707
    0MOL    O   6288   2.617   4.602   1.972
    0MOL    O   6289   2.851   4.672   1.876
    0MOL    O   6290   2.777   4.613   1.630
    0MOL    Si  6291   2.167   5.075   1.564
    0MOL    Si  6292   2.359   5.001   1.774
    0MOL    Si  6293   2.453   5.040   2.057
    0MOL    Si  6294   2.763   5.036   2.034
    0MOL    Si  6295   2.869   5.006   1.739
    0MOL    Si  6296   2.605   5.070   1.603
    0MOL    Si  6297   2.171   4.594   1.551
    0MOL    Si  6298   2.380   4.691   1.756
    0MOL    Si  6299   2.464   4.595   2.024
    0MOL    Si  6300   2.775   4.595   1.995
    0MOL    Si  6301   2.882   4.697   1.720
    0MOL    Si  6302   2.622   4.597   1.589
    0MOL    O   6303   3.016   4.797   2.237
    0MOL    O   6304   2.788   4.788   2.367
    0MOL    O   6305   2.812   4.665   2.136
    0MOL    O   6306   2.807   4.928   2.146
    0MOL    O   6307   2.670   4.858   2.592
    0MOL    O   6308   2.671   5.022   2.386
    0MOL    O   6309   2.525   4.804   2.380
    0MOL    O   6310   2.594   4.679   1.454
    0MOL    O   6311   2.418   4.845   1.350
    0MOL    O   6312   2.599   4.933   1.520
    0MOL    O   6313   2.225   4.685   1.430
    0MOL    O   6314   2.179   4.862   2.555
    0MOL    O   6315   2.270   4.780   2.322
    0MOL    O   6316   2.155   5.016   2.343
    0MOL    O   6317   2.451   4.675   2.163
    0MOL    O   6318   2.996   5.221   2.256
    0MOL    O   6319   2.749   5.268   2.332
    0MOL    O   6320   2.655   5.209   2.571
    0MOL    O   6321   2.493   5.214   2.364
    0MOL    O   6322   2.406   5.268   1.315
    0MOL    O   6323   2.172   5.197   2.533
    0MOL    O   6324   2.246   5.256   2.288
    0MOL    Si  6325   2.856   4.794   2.221
    0MOL    Si  6326   2.664   4.868   2.431
    0MOL    Si  6327   2.570   4.829   1.400
    0MOL    Si  6328   2.259   4.833   1.377
    0MOL    Si  6329   2.154   4.863   2.396
    0MOL    Si  6330   2.418   4.799   2.260
    0MOL    Si  6331   2.852   5.275   2.208
    0MOL    Si  6332   2.642   5.178   2.413
    0MOL    Si  6333   2.558   5.274   1.367
    0MOL    Si  6334   2.247   5.274   1.338
    0MOL    Si  6335   2.141   5.172   2.377
    0MOL    Si  6336   2.400   5.272   2.246
    0MOL    O   6337   3.016   4.086   3.551
    0MOL    O   6338   2.788   4.094   3.681
    0MOL    O   6339   2.812   4.217   3.450
    0MOL    O   6340   2.807   3.954   3.460
    0MOL    O   6341   2.670   4.024   3.906
    0MOL    O   6342   2.671   5.834   3.700
    0MOL    O   6343   2.525   4.079   3.694
    0MOL    O   6344   2.594   4.203   2.768
    0MOL    O   6345   2.418   4.037   2.665
    0MOL    O   6346   2.599   3.950   2.834
    0MOL    O   6347   2.225   4.197   2.744
    0MOL    O   6348   2.179   4.021   3.869
    0MOL    O   6349   2.270   4.102   3.636
    0MOL    O   6350   2.155   5.840   3.658
    0MOL    O   6351   2.451   4.207   3.477
    0MOL    O   6352   2.996   5.635   3.571
    0MOL    O   6353   2.749   5.588   3.646
    0MOL    O   6354   2.865   5.428   3.474
    0MOL    O   6355   2.655   5.647   3.885
    0MOL    O   6356   2.493   5.642   3.678
    0MOL    O   6357   2.600   5.428   2.705
    0MOL    O   6358   2.406   5.588   2.629
    0MOL    O   6359   2.200   5.428   2.655
    0MOL    O   6360   2.172   5.659   3.847
    0MOL    O   6361   2.246   5.600   3.602
    0MOL    O   6362   2.434   5.428   3.537
    0MOL    Si  6363   2.856   4.088   3.535
    0MOL    Si  6364   2.664   4.014   3.746
    0MOL    Si  6365   2.570   4.053   2.715
    0MOL    Si  6366   2.259   4.049   2.692
    0MOL    Si  6367   2.154   4.019   3.710
    0MOL    Si  6368   2.418   4.083   3.574
    0MOL    Si  6369   2.852   5.581   3.523
    0MOL    Si  6370   2.642   5.678   3.727
    0MOL    Si  6371   2.558   5.581   2.681
    0MOL    Si  6372   2.247   5.582   2.652
    0MOL    Si  6373   2.141   5.683   3.691
    0MOL    Si  6374   2.400   5.583   3.560
    0MOL    O   6375   4.016   5.783   2.894
    0MOL    O   6376   2.235   5.775   3.024
    0MOL    O   6377   2.211   5.652   2.793
    0MOL    O   6378   2.216   5.915   2.803
    0MOL    O   6379   2.352   5.845   3.249
    0MOL    O   6380   2.351   4.035   3.043
    0MOL    O   6381   2.497   5.790   3.037
    0MOL    O   6382   2.429   5.666   3.425
    0MOL    O   6383   2.605   5.832   3.322
    0MOL    O   6384   2.424   5.919   3.491
    0MOL    O   6385   2.798   5.672   3.401
    0MOL    O   6386   2.843   5.848   3.212
    0MOL    O   6387   2.752   5.767   2.979
    0MOL    O   6388   2.867   4.029   3.001
    0MOL    O   6389   2.571   5.662   2.820
    0MOL    O   6390   2.027   4.234   2.913
    0MOL    O   6391   2.274   4.281   2.989
    0MOL    O   6392   2.157   4.441   2.817
    0MOL    O   6393   2.367   4.222   3.228
    0MOL    O   6394   2.529   4.228   3.021
    0MOL    O   6395   2.422   4.441   3.362
    0MOL    O   6396   2.617   4.281   3.286
    0MOL    O   6397   2.823   4.441   3.312
    0MOL    O   6398   2.851   4.210   3.190
    0MOL    O   6399   2.777   4.269   2.945
    0MOL    O   6400   2.588   4.441   2.880
    0MOL    Si  6401   2.167   5.781   2.878
    0MOL    Si  6402   2.359   5.855   3.088
    0MOL    Si  6403   2.453   5.816   3.372
    0MOL    Si  6404   2.763   5.820   3.349
    0MOL    Si  6405   2.869   5.850   3.053
    0MOL    Si  6406   2.605   5.786   2.917
    0MOL    Si  6407   2.171   4.288   2.866
    0MOL    Si  6408   2.380   4.191   3.070
    0MOL    Si  6409   2.464   4.288   3.338
    0MOL    Si  6410   2.775   4.287   3.310
    0MOL    Si  6411   2.882   4.186   3.034
    0MOL    Si  6412   2.622   4.286   2.903
    0MOL    O   6413   2.011   4.797   3.677
    0MOL    O   6414   3.792   4.788   3.547
    0MOL    O   6415   3.816   4.665   3.778
    0MOL    O   6416   3.812   4.928   3.768
    0MOL    O   6417   3.674   4.858   3.322
    0MOL    O   6418   3.676   5.022   3.528
    0MOL    O   6419   3.530   4.804   3.534
    0MOL    O   6420   3.598   4.679   3.146
    0MOL    O   6421   3.422   4.845   3.249
    0MOL    O   6422   3.603   4.933   3.080
    0MOL    O   6423   3.229   4.685   3.170
    0MOL    O   6424   3.183   4.862   3.359
    0MOL    O   6425   3.275   4.780   3.592
    0MOL    O   6426   3.160   5.016   3.570
    0MOL    O   6427   3.456   4.675   3.751
    0MOL    O   6428   4.000   5.221   3.658
    0MOL    O   6429   3.753   5.268   3.582
    0MOL    O   6430   3.870   5.428   3.754
    0MOL    O   6431   3.660   5.209   3.343
    0MOL    O   6432   3.498   5.214   3.550
    0MOL    O   6433   3.605   5.428   3.209
    0MOL    O   6434   3.411   5.268   3.285
    0MOL    O   6435   3.204   5.428   3.259
    0MOL    O   6436   3.176   5.197   3.381
    0MOL    O   6437   3.250   5.256   3.626
    0MOL    O   6438   3.439   5.428   3.691
    0MOL    Si  6439   3.860   4.794   3.693
    0MOL    Si  6440   3.668   4.868   3.483
    0MOL    Si  6441   3.574   4.829   3.199
    0MOL    Si  6442   3.264   4.833   3.222
    0MOL    Si  6443   3.158   4.863   3.518
    0MOL    Si  6444   3.422   4.799   3.654
    0MOL    Si  6445   3.856   5.275   3.705
    0MOL    Si  6446   3.647   5.178   3.501
    0MOL    Si  6447   3.563   5.274   3.233
    0MOL    Si  6448   3.252   5.274   3.262
    0MOL    Si  6449   3.146   5.172   3.537
    0MOL    Si  6450   3.405   5.272   3.668
    0MOL    O   6451   3.011   5.072   3.020
    0MOL    O   6452   3.240   5.081   2.890
    0MOL    O   6453   3.215   5.204   3.121
    0MOL    O   6454   3.220   4.941   3.111
    0MOL    O   6455   3.357   5.011   2.665
    0MOL    O   6456   3.356   4.847   2.871
    0MOL    O   6457   3.501   5.065   2.877
    0MOL    O   6458   3.433   5.190   3.803
    0MOL    O   6459   3.609   5.024   3.906
    0MOL    O   6460   3.428   4.937   3.737
    0MOL    O   6461   3.802   5.184   3.827
    0MOL    O   6462   3.848   5.008   2.702
    0MOL    O   6463   3.757   5.089   2.935
    0MOL    O   6464   3.872   4.853   2.913
    0MOL    O   6465   3.576   5.194   3.094
    0MOL    O   6466   3.031   4.648   3.000
    0MOL    O   6467   3.279   4.601   2.925
    0MOL    O   6468   3.162   4.441   3.097
    0MOL    O   6469   3.372   4.660   2.686
    0MOL    O   6470   3.534   4.655   2.893
    0MOL    O   6471   3.427   4.441   3.867
    0MOL    O   6472   3.621   4.602   3.942
    0MOL    O   6473   3.828   4.441   3.916
    0MOL    O   6474   3.856   4.672   2.724
    0MOL    O   6475   3.781   4.613   2.969
    0MOL    O   6476   3.593   4.441   3.034
    0MOL    Si  6477   3.171   5.075   3.036
    0MOL    Si  6478   3.363   5.001   2.825
    0MOL    Si  6479   3.457   5.040   3.856
    0MOL    Si  6480   3.768   5.036   3.879
    0MOL    Si  6481   3.873   5.006   2.861
    0MOL    Si  6482   3.609   5.070   2.997
    0MOL    Si  6483   3.175   4.594   3.048
    0MOL    Si  6484   3.385   4.691   2.844
    0MOL    Si  6485   3.469   4.595   3.890
    0MOL    Si  6486   3.780   4.595   3.919
    0MOL    Si  6487   3.886   4.697   2.880
    0MOL    Si  6488   3.627   4.597   3.011
    0MOL    O   6489   3.011   5.783   3.020
    0MOL    O   6490   3.240   5.775   2.890
    0MOL    O   6491   3.215   5.652   3.121
    0MOL    O   6492   3.220   5.915   3.111
    0MOL    O   6493   3.357   5.845   2.665
    0MOL    O   6494   3.356   4.035   2.871
    0MOL    O   6495   3.501   5.790   2.877
    0MOL    O   6496   3.433   5.666   3.803
    0MOL    O   6497   3.609   5.832   3.906
    0MOL    O   6498   3.428   5.919   3.737
    0MOL    O   6499   3.802   5.672   3.827
    0MOL    O   6500   3.848   5.848   2.702
    0MOL    O   6501   3.757   5.767   2.935
    0MOL    O   6502   3.872   4.029   2.913
    0MOL    O   6503   3.576   5.662   3.094
    0MOL    O   6504   3.031   4.234   3.000
    0MOL    O   6505   3.279   4.281   2.925
    0MOL    O   6506   3.372   4.222   2.686
    0MOL    O   6507   3.534   4.228   2.893
    0MOL    O   6508   3.621   4.281   3.942
    0MOL    O   6509   3.856   4.210   2.724
    0MOL    O   6510   3.781   4.269   2.969
    0MOL    Si  6511   3.171   5.781   3.036
    0MOL    Si  6512   3.363   5.855   2.825
    0MOL    Si  6513   3.457   5.816   3.856
    0MOL    Si  6514   3.768   5.820   3.879
    0MOL    Si  6515   3.873   5.850   2.861
    0MOL    Si  6516   3.609   5.786   2.997
    0MOL    Si  6517   3.175   4.288   3.048
    0MOL    Si  6518   3.385   4.191   2.844
    0MOL    Si  6519   3.469   4.288   3.890
    0MOL    Si  6520   3.780   4.287   3.919
    0MOL    Si  6521   3.886   4.186   2.880
    0MOL    Si  6522   3.627   4.286   3.011
    0MOL    O   6523   2.011   4.086   3.677
    0MOL    O   6524   3.792   4.094   3.547
    0MOL    O   6525   3.816   4.217   3.778
    0MOL    O   6526   3.812   3.954   3.768
    0MOL    O   6527   3.674   4.024   3.322
    0MOL    O   6528   3.676   5.834   3.528
    0MOL    O   6529   3.530   4.079   3.534
    0MOL    O   6530   3.598   4.203   3.146
    0MOL    O   6531   3.422   4.037   3.249
    0MOL    O   6532   3.603   3.950   3.080
    0MOL    O   6533   3.229   4.197   3.170
    0MOL    O   6534   3.183   4.021   3.359
    0MOL    O   6535   3.275   4.102   3.592
    0MOL    O   6536   3.160   5.840   3.570
    0MOL    O   6537   3.456   4.207   3.751
    0MOL    O   6538   4.000   5.635   3.658
    0MOL    O   6539   3.753   5.588   3.582
    0MOL    O   6540   3.660   5.647   3.343
    0MOL    O   6541   3.498   5.642   3.550
    0MOL    O   6542   3.411   5.588   3.285
    0MOL    O   6543   3.176   5.659   3.381
    0MOL    O   6544   3.250   5.600   3.626
    0MOL    Si  6545   3.860   4.088   3.693
    0MOL    Si  6546   3.668   4.014   3.483
    0MOL    Si  6547   3.574   4.053   3.199
    0MOL    Si  6548   3.264   4.049   3.222
    0MOL    Si  6549   3.158   4.019   3.518
    0MOL    Si  6550   3.422   4.083   3.654
    0MOL    Si  6551   3.856   5.581   3.705
    0MOL    Si  6552   3.647   5.678   3.501
    0MOL    Si  6553   3.563   5.581   3.233
    0MOL    Si  6554   3.252   5.582   3.262
    0MOL    Si  6555   3.146   5.683   3.537
    0MOL    Si  6556   3.405   5.583   3.668
    0MOL    O   6557   4.016   5.072   2.894
    0MOL    O   6558   2.235   5.081   3.024
    0MOL    O   6559   2.211   5.204   2.793
    0MOL    O   6560   2.216   4.941   2.803
    0MOL    O   6561   2.352   5.011   3.249
    0MOL    O   6562   2.351   4.847   3.043
    0MOL    O   6563   2.497   5.065   3.037
    0MOL    O   6564   2.429   5.190   3.425
    0MOL    O   6565   2.605   5.024   3.322
    0MOL    O   6566   2.424   4.937   3.491
    0MOL    O   6567   2.798   5.184   3.401
    0MOL    O   6568   2.843   5.008   3.212
    0MOL    O   6569   2.752   5.089   2.979
    0MOL    O   6570   2.867   4.853   3.001
    0MOL    O   6571   2.571   5.194   2.820
    0MOL    O   6572   2.027   4.648   2.913
    0MOL    O   6573   2.274   4.601   2.989
    0MOL    O   6574   2.367   4.660   3.228
    0MOL    O   6575   2.529   4.655   3.021
    0MOL    O   6576   2.617   4.602   3.286
    0MOL    O   6577   2.851   4.672   3.190
    0MOL    O   6578   2.777   4.613   2.945
    0MOL    Si  6579   2.167   5.075   2.878
    0MOL    Si  6580   2.359   5.001   3.088
    0MOL    Si  6581   2.453   5.040   3.372
    0MOL    Si  6582   2.763   5.036   3.349
    0MOL    Si  6583   2.869   5.006   3.053
    0MOL    Si  6584   2.605   5.070   2.917
    0MOL    Si  6585   2.171   4.594   2.866
    0MOL    Si  6586   2.380   4.691   3.070
    0MOL    Si  6587   2.464   4.595   3.338
    0MOL    Si  6588   2.775   4.595   3.310
    0MOL    Si  6589   2.882   4.697   3.034
    0MOL    Si  6590   2.622   4.597   2.903
    0MOL    O   6591   3.016   4.797   3.551
    0MOL    O   6592   2.788   4.788   3.681
    0MOL    O   6593   2.812   4.665   3.450
    0MOL    O   6594   2.807   4.928   3.460
    0MOL    O   6595   2.670   4.858   3.906
    0MOL    O   6596   2.671   5.022   3.700
    0MOL    O   6597   2.525   4.804   3.694
    0MOL    O   6598   2.594   4.679   2.768
    0MOL    O   6599   2.418   4.845   2.665
    0MOL    O   6600   2.599   4.933   2.834
    0MOL    O   6601   2.225   4.685   2.744
    0MOL    O   6602   2.179   4.862   3.869
    0MOL    O   6603   2.270   4.780   3.636
    0MOL    O   6604   2.155   5.016   3.658
    0MOL    O   6605   2.451   4.675   3.477
    0MOL    O   6606   2.996   5.221   3.571
    0MOL    O   6607   2.749   5.268   3.646
    0MOL    O   6608   2.655   5.209   3.885
    0MOL    O   6609   2.493   5.214   3.678
    0MOL    O   6610   2.406   5.268   2.629
    0MOL    O   6611   2.172   5.197   3.847
    0MOL    O   6612   2.246   5.256   3.602
    0MOL    Si  6613   2.856   4.794   3.535
    0MOL    Si  6614   2.664   4.868   3.746
    0MOL    Si  6615   2.570   4.829   2.715
    0MOL    Si  6616   2.259   4.833   2.692
    0MOL    Si  6617   2.154   4.863   3.710
    0MOL    Si  6618   2.418   4.799   3.574
    0MOL    Si  6619   2.852   5.275   3.523
    0MOL    Si  6620   2.642   5.178   3.727
    0MOL    Si  6621   2.558   5.274   2.681
    0MOL    Si  6622   2.247   5.274   2.652
    0MOL    Si  6623   2.141   5.172   3.691
    0MOL    Si  6624   2.400   5.272   3.560
    0MOL    O   6625   3.016   4.086   4.865
    0MOL    O   6626   2.788   4.094   4.995
    0MOL    O   6627   2.812   4.217   4.764
    0MOL    O   6628   2.807   3.954   4.774
    0MOL    O   6629   2.670   4.024   5.220
    0MOL    O   6630   2.671   5.834   5.014
    0MOL    O   6631   2.525   4.079   5.008
    0MOL    O   6632   2.594   4.203   4.082
    0MOL    O   6633   2.418   4.037   3.979
    0MOL    O   6634   2.599   3.950   4.148
    0MOL    O   6635   2.225   4.197   4.059
    0MOL    O   6636   2.179   4.021   5.184
    0MOL    O   6637   2.270   4.102   4.951
    0MOL    O   6638   2.155   5.840   4.972
    0MOL    O   6639   2.451   4.207   4.791
    0MOL    O   6640   2.996   5.635   4.885
    0MOL    O   6641   2.749   5.588   4.960
    0MOL    O   6642   2.865   5.428   4.788
    0MOL    O   6643   2.655   5.647   5.199
    0MOL    O   6644   2.493   5.642   4.993
    0MOL    O   6645   2.600   5.428   4.019
    0MOL    O   6646   2.406   5.588   3.943
    0MOL    O   6647   2.200   5.428   3.970
    0MOL    O   6648   2.172   5.659   5.162
    0MOL    O   6649   2.246   5.600   4.916
    0MOL    O   6650   2.434   5.428   4.851
    0MOL    Si  6651   2.856   4.088   4.849
    0MOL    Si  6652   2.664   4.014   5.060
    0MOL    Si  6653   2.570   4.053   4.029
    0MOL    Si  6654   2.259   4.049   4.006
    0MOL    Si  6655   2.154   4.019   5.025
    0MOL    Si  6656   2.418   4.083   4.888
    0MOL    Si  6657   2.852   5.581   4.837
    0MOL    Si  6658   2.642   5.678   5.041
    0MOL    Si  6659   2.558   5.581   3.995
    0MOL    Si  6660   2.247   5.582   3.967
    0MOL    Si  6661   2.141   5.683   5.005
    0MOL    Si  6662   2.400   5.583   4.875
    0MOL    O   6663   4.016   5.783   4.208
    0MOL    O   6664   2.235   5.775   4.338
    0MOL    O   6665   2.211   5.652   4.107
    0MOL    O   6666   2.216   5.915   4.117
    0MOL    O   6667   2.352   5.845   4.563
    0MOL    O   6668   2.351   4.035   4.357
    0MOL    O   6669   2.497   5.790   4.351
    0MOL    O   6670   2.429   5.666   4.739
    0MOL    O   6671   2.605   5.832   4.636
    0MOL    O   6672   2.424   5.919   4.805
    0MOL    O   6673   2.798   5.672   4.716
    0MOL    O   6674   2.843   5.848   4.527
    0MOL    O   6675   2.752   5.767   4.294
    0MOL    O   6676   2.867   4.029   4.315
    0MOL    O   6677   2.571   5.662   4.134
    0MOL    O   6678   2.027   4.234   4.228
    0MOL    O   6679   2.274   4.281   4.303
    0MOL    O   6680   2.157   4.441   4.131
    0MOL    O   6681   2.367   4.222   4.542
    0MOL    O   6682   2.529   4.228   4.336
    0MOL    O   6683   2.422   4.441   4.676
    0MOL    O   6684   2.617   4.281   4.600
    0MOL    O   6685   2.823   4.441   4.627
    0MOL    O   6686   2.851   4.210   4.504
    0MOL    O   6687   2.777   4.269   4.259
    0MOL    O   6688   2.588   4.441   4.194
    0MOL    Si  6689   2.167   5.781   4.192
    0MOL    Si  6690   2.359   5.855   4.403
    0MOL    Si  6691   2.453   5.816   4.686
    0MOL    Si  6692   2.763   5.820   4.663
    0MOL    Si  6693   2.869   5.850   4.367
    0MOL    Si  6694   2.605   5.786   4.231
    0MOL    Si  6695   2.171   4.288   4.180
    0MOL    Si  6696   2.380   4.191   4.384
    0MOL    Si  6697   2.464   4.288   4.653
    0MOL    Si  6698   2.775   4.287   4.624
    0MOL    Si  6699   2.882   4.186   4.348
    0MOL    Si  6700   2.622   4.286   4.217
    0MOL    O   6701   2.011   4.797   4.992
    0MOL    O   6702   3.792   4.788   4.862
    0MOL    O   6703   3.816   4.665   5.092
    0MOL    O   6704   3.812   4.928   5.083
    0MOL    O   6705   3.674   4.858   4.636
    0MOL    O   6706   3.676   5.022   4.842
    0MOL    O   6707   3.530   4.804   4.849
    0MOL    O   6708   3.598   4.679   4.460
    0MOL    O   6709   3.422   4.845   4.564
    0MOL    O   6710   3.603   4.933   4.394
    0MOL    O   6711   3.229   4.685   4.484
    0MOL    O   6712   3.183   4.862   4.673
    0MOL    O   6713   3.275   4.780   4.906
    0MOL    O   6714   3.160   5.016   4.885
    0MOL    O   6715   3.456   4.675   5.065
    0MOL    O   6716   4.000   5.221   4.972
    0MOL    O   6717   3.753   5.268   4.896
    0MOL    O   6718   3.870   5.428   5.069
    0MOL    O   6719   3.660   5.209   4.657
    0MOL    O   6720   3.498   5.214   4.864
    0MOL    O   6721   3.605   5.428   4.524
    0MOL    O   6722   3.411   5.268   4.599
    0MOL    O   6723   3.204   5.428   4.573
    0MOL    O   6724   3.176   5.197   4.695
    0MOL    O   6725   3.250   5.256   4.941
    0MOL    O   6726   3.439   5.428   5.005
    0MOL    Si  6727   3.860   4.794   5.007
    0MOL    Si  6728   3.668   4.868   4.797
    0MOL    Si  6729   3.574   4.829   4.514
    0MOL    Si  6730   3.264   4.833   4.537
    0MOL    Si  6731   3.158   4.863   4.832
    0MOL    Si  6732   3.422   4.799   4.968
    0MOL    Si  6733   3.856   5.275   5.020
    0MOL    Si  6734   3.647   5.178   4.815
    0MOL    Si  6735   3.563   5.274   4.547
    0MOL    Si  6736   3.252   5.274   4.576
    0MOL    Si  6737   3.146   5.172   4.851
    0MOL    Si  6738   3.405   5.272   4.982
    0MOL    O   6739   3.011   5.072   4.335
    0MOL    O   6740   3.240   5.081   4.204
    0MOL    O   6741   3.215   5.204   4.435
    0MOL    O   6742   3.220   4.941   4.425
    0MOL    O   6743   3.357   5.011   3.979
    0MOL    O   6744   3.356   4.847   4.185
    0MOL    O   6745   3.501   5.065   4.192
    0MOL    O   6746   3.433   5.190   5.117
    0MOL    O   6747   3.609   5.024   5.221
    0MOL    O   6748   3.428   4.937   5.051
    0MOL    O   6749   3.802   5.184   5.141
    0MOL    O   6750   3.848   5.008   4.016
    0MOL    O   6751   3.757   5.089   4.249
    0MOL    O   6752   3.872   4.853   4.228
    0MOL    O   6753   3.576   5.194   4.408
    0MOL    O   6754   3.031   4.648   4.315
    0MOL    O   6755   3.279   4.601   4.239
    0MOL    O   6756   3.162   4.441   4.412
    0MOL    O   6757   3.372   4.660   4.000
    0MOL    O   6758   3.534   4.655   4.207
    0MOL    O   6759   3.427   4.441   5.181
    0MOL    O   6760   3.621   4.602   5.256
    0MOL    O   6761   3.828   4.441   5.230
    0MOL    O   6762   3.856   4.672   4.038
    0MOL    O   6763   3.781   4.613   4.283
    0MOL    O   6764   3.593   4.441   4.348
    0MOL    Si  6765   3.171   5.075   4.350
    0MOL    Si  6766   3.363   5.001   4.140
    0MOL    Si  6767   3.457   5.040   5.171
    0MOL    Si  6768   3.768   5.036   5.194
    0MOL    Si  6769   3.873   5.006   4.175
    0MOL    Si  6770   3.609   5.070   4.311
    0MOL    Si  6771   3.175   4.594   4.363
    0MOL    Si  6772   3.385   4.691   4.158
    0MOL    Si  6773   3.469   4.595   5.204
    0MOL    Si  6774   3.780   4.595   5.233
    0MOL    Si  6775   3.886   4.697   4.194
    0MOL    Si  6776   3.627   4.597   4.325
    0MOL    O   6777   3.011   5.783   4.335
    0MOL    O   6778   3.240   5.775   4.204
    0MOL    O   6779   3.215   5.652   4.435
    0MOL    O   6780   3.220   5.915   4.425
    0MOL    O   6781   3.357   5.845   3.979
    0MOL    O   6782   3.356   4.035   4.185
    0MOL    O   6783   3.501   5.790   4.192
    0MOL    O   6784   3.433   5.666   5.117
    0MOL    O   6785   3.609   5.832   5.221
    0MOL    O   6786   3.428   5.919   5.051
    0MOL    O   6787   3.802   5.672   5.141
    0MOL    O   6788   3.848   5.848   4.016
    0MOL    O   6789   3.757   5.767   4.249
    0MOL    O   6790   3.872   4.029   4.228
    0MOL    O   6791   3.576   5.662   4.408
    0MOL    O   6792   3.031   4.234   4.315
    0MOL    O   6793   3.279   4.281   4.239
    0MOL    O   6794   3.372   4.222   4.000
    0MOL    O   6795   3.534   4.228   4.207
    0MOL    O   6796   3.621   4.281   5.256
    0MOL    O   6797   3.856   4.210   4.038
    0MOL    O   6798   3.781   4.269   4.283
    0MOL    Si  6799   3.171   5.781   4.350
    0MOL    Si  6800   3.363   5.855   4.140
    0MOL    Si  6801   3.457   5.816   5.171
    0MOL    Si  6802   3.768   5.820   5.194
    0MOL    Si  6803   3.873   5.850   4.175
    0MOL    Si  6804   3.609   5.786   4.311
    0MOL    Si  6805   3.175   4.288   4.363
    0MOL    Si  6806   3.385   4.191   4.158
    0MOL    Si  6807   3.469   4.288   5.204
    0MOL    Si  6808   3.780   4.287   5.233
    0MOL    Si  6809   3.886   4.186   4.194
    0MOL    Si  6810   3.627   4.286   4.325
    0MOL    O   6811   2.011   4.086   4.992
    0MOL    O   6812   3.792   4.094   4.862
    0MOL    O   6813   3.816   4.217   5.092
    0MOL    O   6814   3.812   3.954   5.083
    0MOL    O   6815   3.674   4.024   4.636
    0MOL    O   6816   3.676   5.834   4.842
    0MOL    O   6817   3.530   4.079   4.849
    0MOL    O   6818   3.598   4.203   4.460
    0MOL    O   6819   3.422   4.037   4.564
    0MOL    O   6820   3.603   3.950   4.394
    0MOL    O   6821   3.229   4.197   4.484
    0MOL    O   6822   3.183   4.021   4.673
    0MOL    O   6823   3.275   4.102   4.906
    0MOL    O   6824   3.160   5.840   4.885
    0MOL    O   6825   3.456   4.207   5.065
    0MOL    O   6826   4.000   5.635   4.972
    0MOL    O   6827   3.753   5.588   4.896
    0MOL    O   6828   3.660   5.647   4.657
    0MOL    O   6829   3.498   5.642   4.864
    0MOL    O   6830   3.411   5.588   4.599
    0MOL    O   6831   3.176   5.659   4.695
    0MOL    O   6832   3.250   5.600   4.941
    0MOL    Si  6833   3.860   4.088   5.007
    0MOL    Si  6834   3.668   4.014   4.797
    0MOL    Si  6835   3.574   4.053   4.514
    0MOL    Si  6836   3.264   4.049   4.537
    0MOL    Si  6837   3.158   4.019   4.832
    0MOL    Si  6838   3.422   4.083   4.968
    0MOL    Si  6839   3.856   5.581   5.020
    0MOL    Si  6840   3.647   5.678   4.815
    0MOL    Si  6841   3.563   5.581   4.547
    0MOL    Si  6842   3.252   5.582   4.576
    0MOL    Si  6843   3.146   5.683   4.851
    0MOL    Si  6844   3.405   5.583   4.982
    0MOL    O   6845   4.016   5.072   4.208
    0MOL    O   6846   2.235   5.081   4.338
    0MOL    O   6847   2.211   5.204   4.107
    0MOL    O   6848   2.216   4.941   4.117
    0MOL    O   6849   2.352   5.011   4.563
    0MOL    O   6850   2.351   4.847   4.357
    0MOL    O   6851   2.497   5.065   4.351
    0MOL    O   6852   2.429   5.190   4.739
    0MOL    O   6853   2.605   5.024   4.636
    0MOL    O   6854   2.424   4.937   4.805
    0MOL    O   6855   2.798   5.184   4.716
    0MOL    O   6856   2.843   5.008   4.527
    0MOL    O   6857   2.752   5.089   4.294
    0MOL    O   6858   2.867   4.853   4.315
    0MOL    O   6859   2.571   5.194   4.134
    0MOL    O   6860   2.027   4.648   4.228
    0MOL    O   6861   2.274   4.601   4.303
    0MOL    O   6862   2.367   4.660   4.542
    0MOL    O   6863   2.529   4.655   4.336
    0MOL    O   6864   2.617   4.602   4.600
    0MOL    O   6865   2.851   4.672   4.504
    0MOL    O   6866   2.777   4.613   4.259
    0MOL    Si  6867   2.167   5.075   4.192
    0MOL    Si  6868   2.359   5.001   4.403
    0MOL    Si  6869   2.453   5.040   4.686
    0MOL    Si  6870   2.763   5.036   4.663
    0MOL    Si  6871   2.869   5.006   4.367
    0MOL    Si  6872   2.605   5.070   4.231
    0MOL    Si  6873   2.171   4.594   4.180
    0MOL    Si  6874   2.380   4.691   4.384
    0MOL    Si  6875   2.464   4.595   4.653
    0MOL    Si  6876   2.775   4.595   4.624
    0MOL    Si  6877   2.882   4.697   4.348
    0MOL    Si  6878   2.622   4.597   4.217
    0MOL    O   6879   3.016   4.797   4.865
    0MOL    O   6880   2.788   4.788   4.995
    0MOL    O   6881   2.812   4.665   4.764
    0MOL    O   6882   2.807   4.928   4.774
    0MOL    O   6883   2.670   4.858   5.220
    0MOL    O   6884   2.671   5.022   5.014
    0MOL    O   6885   2.525   4.804   5.008
    0MOL    O   6886   2.594   4.679   4.082
    0MOL    O   6887   2.418   4.845   3.979
    0MOL    O   6888   2.599   4.933   4.148
    0MOL    O   6889   2.225   4.685   4.059
    0MOL    O   6890   2.179   4.862   5.184
    0MOL    O   6891   2.270   4.780   4.951
    0MOL    O   6892   2.155   5.016   4.972
    0MOL    O   6893   2.451   4.675   4.791
    0MOL    O   6894   2.996   5.221   4.885
    0MOL    O   6895   2.749   5.268   4.960
    0MOL    O   6896   2.655   5.209   5.199
    0MOL    O   6897   2.493   5.214   4.993
    0MOL    O   6898   2.406   5.268   3.943
    0MOL    O   6899   2.172   5.197   5.162
    0MOL    O   6900   2.246   5.256   4.916
    0MOL    Si  6901   2.856   4.794   4.849
    0MOL    Si  6902   2.664   4.868   5.060
    0MOL    Si  6903   2.570   4.829   4.029
    0MOL    Si  6904   2.259   4.833   4.006
    0MOL    Si  6905   2.154   4.863   5.025
    0MOL    Si  6906   2.418   4.799   4.888
    0MOL    Si  6907   2.852   5.275   4.837
    0MOL    Si  6908   2.642   5.178   5.041
    0MOL    Si  6909   2.558   5.274   3.995
    0MOL    Si  6910   2.247   5.274   3.967
    0MOL    Si  6911   2.141   5.172   5.005
    0MOL    Si  6912   2.400   5.272   4.875
    0MOL    C      1   3.014   1.088   1.330
    0MOL    C      2   2.936   3.438   1.710
    0MOL    C      3   2.043   0.114   4.567
    0MOL    C      4   0.987   5.787   0.009
    0MOL    C      5   0.041   2.914   1.971
    0MOL    C      6   1.233   4.425   3.459
    0MOL    C      7   1.877   4.431   0.900
    0MOL    C      8   3.036   2.134   1.344
    0MOL    C      9   3.000   4.043   0.045
    0MOL    C     10   0.524   4.397   1.121
    0MOL    C     11   1.302   0.465   2.182
    0MOL    C     12   2.009   1.970   1.968
    0MOL    C     13   2.867   1.481   0.495
    0MOL    C     14   2.650   0.541   5.107
    0MOL    C     15   1.042   1.369   3.956
    0MOL    C     16   0.092   3.477   3.324
    0MOL    C     17   2.996   5.174   5.201
    0MOL    C     18   0.935   4.469   1.153
    0MOL    C     19   3.919   4.473   3.408
    0MOL    C     20   3.051   0.128   3.915
    0MOL    C     21   0.102   2.433   3.721
    0MOL    C     22   3.868   0.520   0.716
    0MOL    C     23   0.890   5.419   2.934
    0MOL    C     24   1.192   4.433   2.149
    0MOL    C     25   2.490   5.379   3.150
    0MOL    C     26   0.007   0.695   1.998
    0MOL    C     27   3.960   1.001   3.268
    0MOL    C     28   1.010   0.472   3.971
    0MOL    C     29   3.040   4.852   2.604
    0MOL    C     30   3.668   4.468   2.180
    0MOL    C     31   1.378   1.458   4.192
    0MOL    C     32   3.582   3.462   4.073
    0MOL    C     33   1.004   2.108   4.015
    0MOL    C     34   1.059   3.276   3.933
    0MOL    C     35   2.026   1.511   0.615
    0MOL    C     36   2.123   5.334   0.640
    0MOL    C     37   2.035   4.479   3.350
    0MOL    C     38   3.133   0.491   4.923
    0MOL    C     39   2.033   3.473   1.703
    0MOL    C     40   1.040   0.096   2.627
    0MOL    C     41   2.625   5.371   0.559
    0MOL    C     42   3.082   2.815   2.609
    0MOL    C     43   0.655   3.445   1.806
    0MOL    C     44   2.869   1.488   3.003
    0MOL    C     45   2.508   3.500   1.824
    0MOL    C     46   3.084   5.483   4.179
    0MOL    C     47   2.364   2.410   2.485
    0MOL    C     48   1.731   2.432   0.814
    0MOL    C     49   1.030   2.460   3.868
    0MOL    C     50   3.183   0.461   3.478
    0MOL    C     51   1.596   2.505   4.729
    0MOL    C     52   2.016   0.066   0.603
    0MOL    C     53   0.993   1.581   2.558
    0MOL    C     54   3.848   2.428   0.723
    0MOL    C     55   3.642   3.478   1.473
    0MOL    C     56   2.634   1.507   4.491
    0MOL    C     57   3.017   1.538   3.982
    0MOL    C     58   3.420   0.501   2.059
    0MOL    C     59   3.600   5.381   4.045
    0MOL    C     60   2.032   5.590   4.636
    0MOL    C     61   0.006   1.455   3.182
    0MOL    C     62   2.550   5.409   4.431
    0MOL    C     63   0.370   0.466   1.136
    0MOL    C     64   3.619   4.420   0.874
    0MOL    C     65   4.012   3.318   1.888
    0MOL    C     66   2.525   4.449   3.773
    0MOL    C     67   3.028   2.126   4.025
    0MOL    C     68   0.836   4.431   2.514
    0MOL    C     69   1.041   4.008   1.297
    0MOL    C     70   2.056   3.506   0.523
    0MOL    C     71   2.935   3.489   0.262
    0MOL    C     72   0.361   5.436   1.805
    0MOL    C     73   1.495   3.448   1.431
    0MOL    C     74   1.491   5.403   0.148
    0MOL    C     75   2.300   2.479   3.695
    0MOL    C     76   2.011   1.988   4.657
    0MOL    C     77   1.033   2.546   2.661
    0MOL    C     78   3.320   1.465   2.795
    0MOL    C     79   2.042   4.457   4.962
    0MOL    C     80   3.167   4.475   4.797
    0MOL    C     81   3.116   2.508   4.837
    0MOL    C     82   1.999   4.944   4.578
    0MOL    C     83   1.968   3.077   2.026
    0MOL    C     84   3.845   3.474   0.295
    0MOL    C     85   2.259   1.457   4.352
    0MOL    C     86   2.919   4.462   2.612
    0MOL    C     87   3.024   0.173   1.286
    0MOL    C     88   3.808   2.478   2.168
    0MOL    C     89   2.011   4.859   1.970
    0MOL    C     90   1.987   3.120   4.638
    0MOL    C     91   0.975   1.908   1.314
    0MOL    C     92   3.676   1.513   0.174
    0MOL    C     93   1.373   3.408   0.146
    0MOL    C     94   1.036   3.362   1.255
    0MOL    C     95   2.885   4.401   3.943
    0MOL    C     96   3.995   2.567   4.628
    0MOL    C     97   3.993   0.338   1.953
    0MOL    C     98   2.869   3.464   4.431
    0MOL    C     99   0.446   3.438   0.479
    0MOL    C    100   2.081   0.480   3.636
   4.01800   5.92140   5.25680   0.00000   0.00000   0.00000   0.00000   0.00000   0.00000
